# vtk DataFile Version 3.0
Point representing Sub_cellular elem model
ASCII

DATASET UNSTRUCTURED_GRID
POINTS 2084 float
1679345798200346846756573690326476848806296865672072579346456776642573636793293787559982064041807519485807203814503967045715938964819265049329664.00000 -21978581006965876404619670790646382531255819774913470500432727131031863435830246030024582588569469787766820670600135389173733818751258270258692096.00000 2.00000 
-2591707985982346399403070575373955862791455502369452117159288367340839755789762261928833089483807158279219731774384231507367478235598362903174639966782902538389254956205661249485247881412608.00000 325903191355377785621129494278813398803482967088284786700592098355093432618387230653450485929111666219436260126609396651483257402905496036998737002027673524897697922597290378840650299736064.00000 2.00000 
25190565795560442009292839268115916379850843992391471006868210019177670905840182368515730667841148972938666817109372244584786333095692504115280219209728.00000 -1561104564133991637452294099582170340893605003366755803066683887441874307733094174537745469110481616889689188874496819442659616073972904361984.00000 2.00000 
-814278186369700657570331423092542333536672167662835808076686790841848042649595601296460863774102874211205575305088819132999661478906484413583122851406017050324390155985449894721449208315904.00000 -102394197584680372363799479886810335173282761889183584167875670181850053850623110985421810496322384545909984700674473000442363812906293758557407571224371070505280066824694565184359186300928.00000 2.00000 
1172974049498009313617101359269480569682103738360290072121993271209153439812295389214865101014493339567069410507727662511374542799651291706903849044531896893679826196889835216568320.00000 -147499636601043774125237260803239075034670360220724236924232783534350131805050664274702940660991789327007094331701000809555469620160912387665044947527781194200089490314674860720128.00000 2.00000 
-25190565795411038855836428680549721772491848884346011317896210417250690032418203601565445497905603750082351288681226386743575107689098599681315219439616.00000 459438939704542225655432404425657070098957856130548364667007675915664300135601270089347140076962142232590902287777461948502064115239656357888.00000 2.00000 
4230706560454570672433047482390028415054325790547676113302976939516352366613620662011802801676723531296309920041114113706714824388322940915482456228766362120977302674932903238584283277819904.00000 532004676985261323968819517585849328063419636722862504777994642271182907683236792117635861914565531611670136789028066944856655255482511899495954644742839923485319708046197328150149724110848.00000 2.00000 
-161835436035337318232272242540259093462331844588061145287494642900592182980420167829590519202602267151927931230486528.00000 235140716820078602548123575057570633462989779936185038143359747513851491124699894286840221423959558708511844786503680.00000 2.00000 
-61534492173489963407267266938408447568272135572515289580294797000704.00000 393572839181521340077258991016959594140432788613844959232.00000 2.00000 
-528572034783429503538370104198196811434910315626553654238319109628118336430513407279640895646266966907580275333529600.00000 -769208389002882391091906506903135345545645911938614126740529101871595381610249609614178175642566175319363844657119232.00000 2.00000 
27701583423408392934403180528304866508218040320.00000 -592865105608388671059665325066632242845974528.00000 2.00000 
61534492173085324721371607206018314330173705889087457345041365729280.00000 -293984749586466928132603155784926224141255572906798219264.00000 2.00000 
-1254785754923858274954714151790796891874181400234895844511119760418558985227032969518906241300752763525580493349191680.00000 -1825535012268299656927427568330293477214065469046598066643554768589569091024303489159028832076635939664048772012310528.00000 2.00000 
2445680933872541995054577315172956776842473350651170699132973862598916777606334995818808756572681120557444951222159149522761014696577694843469518017134592.00000 -4444751439784577357045841523915947748458651109514774345130134050913518958806652086180844520144990004577098223921835133781909978553886772529199706877722624.00000 2.00000 
-3210018310341403462182141366257027851371700357268421289910183834604812537447180766599793577033242288628223991814939786712335471381266295513101793306495637644749501568092679458884516955244266008509435638958608167622148096.00000 -391571351236925875599161574977506034610772320335863372181123062577905508075437020553640257535694342063713630332405019092343373899013640243773375493433026721407480313770757627488740193225758971263069757023939482611613696.00000 2.00000 
-5468772112776916361898618861159398968860044458469227902225187049354790088083582300129552138525770805264861934263431687252824970073527028844163471526330368.00000 -9938881391052999983190862750417880524634595124195096279609522753707219825772178640381045634547414139485215059826269562753652424320680157772501117860577280.00000 2.00000 
-3210018310341424782122309347011313448416647257203980170662901804965475825271657048826027786659911202548415928070316330403605955120571105400594033526724231750672939898260080114345449015380624569616089814117631836861497344.00000 391571351236931048819937629131119451540796200467285747657885511268360570562258471387947087812753710882583732512018445135078123629874366172356051429223788526521255790943729845357936943111787151531596137761055520000573440.00000 2.00000 
-69851574382247436614584795115107687512168206984196976132130150313164211772438325354438581445100656091561037333344692687638908702821743012526161920.00000 126947420453208751352496039865101383980697244022083599281780196354846052960580694521379315494220611624887407708571321004028370320809311723566661632.00000 2.00000 
3210018310341426663293500639430809236391201395433588307199906331762004938903228485493048452215205518482550510681084848964600409568156823920078642957920872407077949162686615466297884197157362089713735770749310395912028160.00000 391571351236930813673538717578682478043976933188584730590759945418794431358312041804569504618341921390816909685672380314953816823926151357420475250324208444470629632890412926363882545389694961519390393182095700119257088.00000 2.00000 
5468772112776916361898618861159398968860044458469227902225187049354790088083582300129552138525770805264861934263431687252824970073527028844163471526330368.00000 9938881391052999983190862750417880524634595124195096279609522753707219825772178640381045634547414139485215059826269562753652424320680157772501117860577280.00000 2.00000 
3210018310341425409179373111151145377741498636613849549508569980564318863148847527715034675178342641193127455607239169923937439936433011573755570003789778636141276319735591898329594075972870409648638466328191356545007616.00000 -391571351236930813673538717578682478043976933188584730590759945418794431358312041804569504618341921390816909685672380314953816823926151357420475250324208444470629632890412926363882545389694961519390393182095700119257088.00000 2.00000 
11438032212010061002998473081142333853191394995979003770304290854988846047555316720116759075023214802910932106796449226212895923930269703208960.00000 4409808686308533370977463592920795635065107549019373084815149485414533602900866465003055111972487056220673884788316262371647260348050472697856.00000 2.00000 
-592734568555205235372794955022957123291701197381872626552525710969745174983790248458092415768704102529300661135958299397709939495878852083712.00000 94386635952265656904947382021194036030787348334279331559673538088380296595890595393020279579999957916081931386779545343020771639677001985425408.00000 2.00000 
-3030109323792798758259889664047328858661634634347199336829124465698571099430014184215743501680042228753417980827691901237584192532905984.00000 917175721948062463718825313310878358194887938109337494626798481114231416235687596615783821009330041567952435740773169066680662905323520.00000 2.00000 
-490297764088998881164545473867037774527581971171314044543613038600451019428963653836485003227181996491774203470175986351825891403461314685748379648.00000 -794767957558861005033052986248519202762600713640404876136865252815316180037550946494568665596938477878612128687697666038467077483439499448942592.00000 2.00000 
-5901366058180791872912778118525467902804228077077408096545030195545341808130725467964144825828911606385750705393649870721523194121189375082496.00000 2275207380263146492964574263472994578012268332336308418053890127421516039763398517944595431455064679433169619019138740310288203140188744974336.00000 2.00000 
741990425049775605517530385365272986316572960871221359831431978524795893496001595936746024109042646931006986759963576602113959105568929822012473201393664.00000 6710409434227291904110390202786286170530130829693655290618113018584640508532370009892448101194111463279861405549025800782593064450414330329150706866454528.00000 2.00000 
741990425068926468519466923014569057898615366423096598985439144747982242302444948802243930736508860925781343387529037243399317364350168871259472736026624.00000 -6710409434412588563362239717252753657467011581179282225050588875775224623720094254033208725313190911841216748685801416658787396772547091336725649338400768.00000 2.00000 
146716180837875743212374322517601646528661121040865396280510099032289740952617091072.00000 -345450362476639275798887152051756815187791725130613285159033018518076016662870491136.00000 2.00000 
3152017322965695551304160165700610402228075968133638265042410353892444964305765890752227300712462623468324499975953854717142871815749632.00000 144886410842600951281994174420377905093929181623074779596031457535547510507374236985610260659452972693633739833070317115524973772931072.00000 2.00000 
[...]
CELL_DATA 6067
SCALARS Strain double 
LOOKUP_TABLE default 
inf
17361068244711419143529528813554436796028020651281173492428798795727819425019365455955847188923499845045355955304177351634238585513259142219825152.00000
30059259318028951896325588211295256037300978991074820225599023936464516383448433028252384295443365552676681973803854482318984414524724141915964226666496.00000
18201501488484728409293034486618590051862079885126675947963462137798360383869551273769132465062452383570640593202038542041950568665802083542937397886976.00000
9319772986120669318588381206058515011456459263956542953793505860591290774748782765570120725536172280852107165817869666381851096206022115284127580160.00000
inf
inf
inf
inf
inf
inf
inf
69167481235054500168811748012049277671212652511467436615117010646253887610965266232284718352714655773171610644713040178277421877612986336261853298032640.00000
139139873281225670598184583473890112839518861178790284410429920824344537725158384833559149842824323249821687719174472771017849725749692015278060057133056.00000
287185621866981325183159012316614519353162959606934006392095778731960758676982238523437906994853130042870070801733165858943249860520842675287550219780096.00000
287185621864900542912665137640060163945122106434058951562981895586075873038611091259655481234321683521943519886462863884289176746591566754298778240417792.00000
459977360698822911869041672359184304310405317980056575928830599158817201162828875986060897314526483248232924519451389151987309922599690686887549592403968.00000
459977360701243784885988358682254250525452200026573836965175521174380037191357441095308734416973947866552648262101834153551041406248779182116756883767296.00000
inf
inf
inf
inf
inf
inf
inf
inf
inf
inf
inf
inf
69167481234877767879321822605398428488677068432930280010983167885260322706054095428101369420862045766808457606219809649623815043916091530806652387196928.00000
139139873281153289090664329757301648977434142135241211389167234942629465805163180050691665224027807840227408288261669796066211314686358905509476095229952.00000
287185621865898114524986372185201299884972234897368637257698025877451012707182535069805357616128414215227146104923699229943344950481784324342019283484672.00000
287185621865295617554933463356632029999547247074715942031866208692377997599356126105988094902341481319941087500050547474433305940139695354083214993915904.00000
459977360699249013802772728942699939899541581758276054640119932498476621977196533962324495713097229489803361272125730572653767406751446011746308648337408.00000
459977360699946872013453221395309281068561475775835947612473925813058568599155442800742236234424558650943065656800454370998548539638414721738787180773376.00000
inf
inf
inf
inf
inf
inf
123262817826643522693171015310544737944891269842351467388245931523322763560813746459508807028969658499276557011386368.00000
42057704052428430229585259427662506077924850613596597255131490446531782284360380591038354875527763772444532303848660394188517938531806094765355696128.00000
85364989960401954790310540760895355391901602940326032989793140680693656099929823798420715495078626889166403460969529344.00000
inf
947710108729134725785234145576838580986533088754816755641377446231047484046007760296159277467674913136016058323304448.00000
824447317183268934420154336893089210257638427174069733116662847205747435421652673702296688379540742005865982038376448.00000
inf
inf
48292018675522207308543585197805019929195845478784379761876573728066764800.00000
48292018675521654923590871169897802379726603204139762754597460893029629952.00000
inf
inf
3381932518412600772522522997290641051147894545582731804956087852149544769676222881301973108055322770188408849868783616.00000
32109023348460115362153843933069543544023691379941090349994429208135033805228697573692630743798999726264994434805399552.00000
41554416575808547760328163663024155317872621518163632569090743855009569997163128061374558088048397735476938280043282432.00000
inf
59309335399237927870501042348382208874958566001104563371722896658844118165771714373385036427689232372965855194970587136.00000
1266032043401777638213815704124154815682510357498617091835883708540783755326824736099881956908961726359411027655786496.00000
93628780774020411269632899631643107029478801408.00000
inf
inf
inf
20068009926986225435491570178707673154244203394803695616.00000
91991789182723380859736208378190597676123291648.00000
inf
inf
48292018675522037826796729757424396362881418871791144998279573199134916608.00000
48292018675544786043485771088512537263751123454883099934410310860209651712.00000
inf
inf
7353771453073730901607711495309983411691399093425966377440945899944469816223495729292575679177166942747646098273206272.00000
14493747157037433411381056509164415565957164896382882935476600164976682270074635660468646014352324407946807228347515956620825708794697923442797182976.00000
inf
426286681089336214175609747775841276756913866896899961655674302245575074680774051424690635871524879801366568834362352288952226189316316435018940416.00000
3678049722488393767412803448968772125976097465430134680230197276603185152143943938097652359964368993516720931517497344.00000
2557720086536017285053658486655047660541483201381399769934045813473450448084644308548143815229149278808199413006174113733713357135897898610113642496.00000
16843232091291297840129114328091700801404682547745789562819903075037123658586741255962402280595500190555818402989851213637064549980362678246831401182691328.00000
inf
inf
16169502807639646283779719520744731612152133298947946705808908557066211701801334306991729082869027456223010913699324909517576587893099949007885537632059392.00000
inf
inf
inf
inf
37663047813858242269396421023434576584943659655526753883975786647351538292225069308753310974271440489723654575599218001827233286067683967020145987245047808.00000
inf
inf
36156525901303919485565446320846704482416248962804132421651586212048554558658612094247754476249296820396929831270559007323373272922710980897269736024309760.00000
inf
inf
inf
inf
481062865955844603492820543076862278558977274458712317853377044058225148550212686137534590754455042929873187509448846955393022369296841860576182272.00000
inf
696601303730076109496957538556475109854019331211714266670616651349045974106617968818303040213225950375562592531720917447996109493427475585843886817280.00000
inf
inf
inf
inf
inf
37663047813858242269396421023434576584943659655526753883975786647351538292225069308753310974271440489723654575599218001827233286067683967020145987245047808.00000
inf
36156525901303919485565446320846704482416248962804132421651586212048554558658612094247754476249296820396929831270559007323373272922710980897269736024309760.00000
inf
inf
inf
inf
inf
40699436046500084387832725107620490660672089765923004724765952437185395804274515562891720834949579431775869157813570869264676365704632920440832.00000
inf
39071458604640084478156533754334245507262936354140713831321658559468698935203010708652686758583625054472842021675500656233103012830912389840896.00000
40699436046500084387832725107620490660672089765923004724765952437185395804274515562891720834949579431775869157813570869264676365704632920440832.00000
inf
40699436046500084387832725107620490660672089765923004724765952437185395804274515562891720834949579431775869157813570869264676365704632920440832.00000
705194343900604007172529227447275866602787513552631811781633123599249595273570000171237308956759847201844499338003706622267481582458156827541504.00000
313374824296336457957739178820585886141476091060934720172996443813650617153946188020467933203147476547991294842545106221234152853867144367046656.00000
548304953284741824658427487835067677963116850691107068910352651655352873342214751910634423855830058990120680032176718262669129833010420640645120.00000
313374824296336457957739178820585886141476091060934720172996443813650617153946188020467933203147476547991294842545106221234152853867144367046656.00000
313374824296336457957739178820585886141476091060934720172996443813650617153946188020467933203147476547991294842545106221234152853867144367046656.00000
313374824296336457957739178820585886141476091060934720172996443813650617153946188020467933203147476547991294842545106221234152853867144367046656.00000
46297433249068567867952486689153301538658070769805900238007734198660587997781326188761082960980077736382621716280333757024709828247814144.00000
8148675068804542869994635514525155979839385518921877215590445617371620157125863878092439977205995827618527323604721038002355148848889856.00000
10510878052232777607064102172151678533618839333783428419074005299697999462478096159024825454807221367315799160389925784182755151543533568.00000
10058943831565166098883067047786165730634976306024822601508860692983645116535920313545882763763578476021627766603524764230525324105875456.00000
10507875451841800847765427234283966789020688333391086277522021261786421785076045029277104508691287519153608769098346466732698450637357056.00000
8222247770530112129147895052838202752712473216188856782115096635469981598903273140570365004710775181856024499243444437365737867509235712.00000
886979857095238687247555205350124586175394732974231864581820147022695092283268549707599108405695604830262554384759481787390976040471949441966800896.00000
852040585856553233024096839607781676902484819027097836503965373129990820546002113218132603464763071710927330092763996589046886720256947230282350592.00000
775156987680388323970295750317481899304750209368323789728209032901463504025089325843750111063655576879873919173257923579069404788115973194651795456.00000
963863455271399781107857184399177583875211961749829982820160770127614974224278411363062060265945796656533166008206092787062175081298086809156190208.00000
inf
20998565664094077865999390550065593124215898057041583261945748458881509978808874518872398762134188780845456974120244152287730759240135227736064.00000
20998565664094077865999390550065593124215898057041583261945748458881509978808874518872398762134188780845456974120244152287730759240135227736064.00000
20158623037530316267663153900383595731192519088008820248269444116675939126012540186738530517850333829597642033356766158207040023388108162596864.00000
20998565664094077865999390550065593124215898057041583261945748458881509978808874518872398762134188780845456974120244152287730759240135227736064.00000
inf
41121625496973403580112467762384538967315269113648431589336233330101748333465569793548997386427468235518158823824998641834200589168881403802381267251494912.00000
13566141986929285517115783520403421814396683942722417673142157793557249573489736310435821798069085385735293555450059692886436978477742722136647349512962048.00000
15854310355132156492775511230059754362639794689082329183827273136699628929701111111685409859437486398373457627753122879003949746882592132412442397418455040.00000
9752916088578367554137757063003329428455371932227732221649511040013225981386288244615739317315551429777584191854968399398312908069746468841069126053003264.00000
inf
inf
41121625497934832444917637725475349977861901442107065762725611356602597513904086695128832772541981072271162869485410657255576638195952573054698696107622400.00000
13566141987231625120805730911022439153220398400247664422810468416968762735986107581153540378110682338164597548331038338366691464734842182473460744561098752.00000
15854310355573703784286108226188693829061221342281040423005997298131298304312887233492103793322014519428732290456281650171141424416211608365470392965398528.00000
9752916088819239814073795215183530556336889917459470030094169465714498222702978464455369622519831964553899381842736284062567293390327387241139332641193984.00000
inf
inf
723852056144260037016423832881195320308299357405933077207238621995312640482774876160.00000
10053433623102940760799869962197958773001964851155777714341680398670392492528257567031296.00000
inf
inf
2094868409349409564394093556889197910243044264660609501462038284717899632127789498368.00000
27220544850394908608293093017212259602541473012511648036463988254633082233583866740736.00000
48543048550821557555804582462565361183722474466354465369726719518479744421892012940768470106557528330294400226937012263266220908581224448.00000
8090119253548070567159857334924883531953719042556572494911748203456760072663633113166498734322299852497922720144204391022795222685843456.00000
10475914701964084671984585841498733420398822825260123767232075717967703128903986396600335768473865892710053295294058423547497144198889472.00000
12310218515271964819941178388036438962924944360200438584099532277218803265092649331830006962383983352851163689197178623053304911242461184.00000
10476804215094613953011311114882004733989573771543002818655797637383254422565891452723386322791807587184782713521949459998303997411721216.00000
8175980979184977184808929575970498530741560800596257500889978085343528723595052552300162492260339287535174761888689992282147231700615168.00000
1503906054504964580501694567370627661301023646411562348349953840225203689544033539893858956981290400642351896039911643987646646694864486400.00000
1828102996151020233932025039141710197827911351040191520312566152535912528225773094318532516889962088984986766439458782838363809674256449536.00000
416930247213049508668528986987723648372999043898145417853509024642813362513553449026331915090967372211425994072101238999486209266815074304.00000
2915078803442948031092589831810144035125615584396125147599158030531774084745562217497540857773692252308213632926502503957355728801953218560.00000
200652557293897572382481088650401806845470981753932326840944523868431248589177858150731154531915766852429321059832886717738989404553216.00000
inf
192626455002141627525621326192121152662965597434832075909587609438811915147396200039178050576969723446595157415199810415602885271224320.00000
200652557293897572382481088650401806845470981753932326840944523868431248589177858150731154531915766852429321059832886717738989404553216.00000
inf
200652557293897572382481088650401806845470981753932326840944523868431248589177858150731154531915766852429321059832886717738989404553216.00000
1093539171865625279992315652940430142978147189698389242294023713243023653849697676189626301968050519621029801720777002855245584237670439059456.00000
4093706631248522875670159218494557421888842707296809536985088148801355902696697078554803657790793437427385490566939647225972344718204363341824.00000
-1.00000
23499709188174428001600607067177987857461226579689373274224143330509791514888361390012589781888580165398968475046357053814796848661289500672.00000
3287040566830392313600438614820853703289335082522779960946651578666541003728151127559345113874835116454141865890921795353240969796386816.00000
1337833973913661842387033005078706379406903223448941223548233142604613685782638082234325376304384579251158706696927940782988881207230464.00000
1617767733644016177285424232671900659834071351893877205279460557139794743211126091911013380826101355998255387419215706363997015544692736.00000
4069864432604496154896638842462729816007845763277154655512717360813995796360333517570935427075069034149963964596178815736750048907624448.00000
1609736019153592911860709470648073379878583597517154339295746608594050183174424620683785012624563151051063880322309273670993184439664640.00000
1309961918538315655298774143969406298369832042602325591445911933152185760801160662020145186311205483023815066033761033313054012884385792.00000
inf
2821731229418202340385776635268868699506643544106632908603691432021849025798833871673008886522348464229418716853529278480657772802633149448192.00000
2821731229418202340385776635268868699506643544106632908603691432021849025798833871673008886522348464229418716853529278480657772802633149448192.00000
2708861980241474395693034218925318323413858395965027444802550752934248145212561116224225180777674513158867296038447477806779706887789982253056.00000
2821731229418202340385776635268868699506643544106632908603691432021849025798833871673008886522348464229418716853529278480657772802633149448192.00000
inf
41121625497563280490098400529067186814226030755299398464026352810183907302727056471522547306421972181857373191880078549084291209814416377051045611750555648.00000
13566141987118473287126665286081452170958026505618579864697115108738644958577048529947597430795549744953295611849685015220699851807989678495072234944593920.00000
15854310355412477232522227916806760237238169011035794172456660375795885663599660908918792552975472945893382055758786735682463659845114248590964914019893248.00000
9752916088730073239637379423361102303324308828973443849186073897578466899728525781708938853357259840130106431897074361130370019125963035400564568590647296.00000
inf
inf
41121625497690671943334047070262883211495136271945766981448679962002433881918616889369320235503839302743304990286611784999174813285882650243753384700018688.00000
13566141987136026453947823781217928589707702741331292853215975610891531911391104155645764600458244032047089813378194479089691525705343386060956904944828416.00000
15854310355471296417882748335465404166213296790712875331575915284383841485639568812059682778726126105681728738187341938813343663439079174028411220871086080.00000
9752916088753253184832348901504352879373321578508583491080213631255939392030126375617678606239508435671538191242558534414625306263818525072881061233426432.00000
inf
inf
928846454356621337984945924302513096243259036397691922340641194407925842641251314739416296807340396142683421995521706231575614081219683332128768.00000
1669718113019317906086236704356578410379957077596652944526614765536552866051560340137173019626331693375005595850169471867518677412477554500042752.00000
866502427113914027480319492767421635549953104049970554863616949276959997063928984146150306042446887277284407828603301162614952116686548314882048.00000
1732062140262030588638395494970460304250744787169049720100472551312133104433070111559222883790869842190816436787520440631950577096431108154720256.00000
12063266153384618575140465355376343594476969798334653021985715456562963128941837564685499700844510060055678333132386932332676538639056896.00000
2122729098804881816974858012641083283967819458531259718873175473087047287864788111040641019571458458029370986274587214468273061079547904.00000
2711610638736138022559953737148290459582369826506146906793724888092630580963220268062022455459116297848692222728653235013080771473702912.00000
5430165569564579780130551997277326073529075548209193743538021368395812676572393988704056499284942887765147806971204513566179662764179456.00000
2709245181659224734845793928304013690330901236124087460963810987708142403242911240574920001727843972922012076491640115860314554953105408.00000
2130863715570166712247422907392695998494736286116078600000611672330758099160004485558856172549250068819994822652766724963611204510547968.00000
inf
inf
inf
inf
inf
inf
24996009216741928670836222674387176607073032754933623536938671480642966333556247513388497164075425544806376291292872142862791213056.00000
inf
12466427580779587844875046315684413774423879125551481038007625704014322429545062919193939162336989495622363805994929947935005212672.00000
2249502078681054961509356815346440938249575459899799217418797920285763025852043124149332226056309873207753396832325035905968504832.00000
311660689519489782313764712505033621220997197202942224562120296743522646875518394767364854208572949859266527710626212962873859112960.00000
56237551967026376500359307658315974223679392756470843252953652411234492393069415869090916369983410043585475851115353448063462014976.00000
inf
inf
inf
inf
inf
inf
26757299089011576595649605416454104860071429591231875372697635015281983230919626892196527392559559664166785471700869879134169304902015749372849745297408000.00000
22639674692091744933084723701650502376678181571755152710820355663697764970672603529790229718711859112665938392306212346588568386292606206038674028097437696.00000
inf
21515718359460650013390831666669802176099756356123699908262476914145328476158554656023220976213636950144343775186628111864420982780271847295963761200857088.00000
inf