# vtk DataFile Version 3.0
Point representing Sub_cellular elem model
ASCII

DATASET UNSTRUCTURED_GRID
POINTS 364 float
-0.56965 -0.01423 2.05424 
-0.74769 -0.12333 2.08472 
-0.74971 0.01124 2.06287 
-0.72363 0.18119 2.04529 
-0.71231 -0.29366 2.01141 
-0.75601 -0.12346 2.01801 
-0.67888 -0.13255 2.02093 
-0.55826 -0.20753 2.08827 
-0.68564 -0.10295 2.06138 
-0.71417 -0.02667 2.06296 
-0.68882 0.06277 2.05013 
-0.72333 0.10277 2.05245 
-0.66841 0.21810 2.04830 
-0.69713 0.27595 2.04032 
-0.65836 0.34861 2.03922 
-0.60081 -0.45313 2.01442 
-0.64819 -0.38610 2.01707 
-0.62285 -0.32423 2.01786 
-0.67289 -0.24278 2.02623 
-0.59054 -0.20849 2.02957 
-0.59691 -0.11666 2.07870 
-0.58537 -0.03355 2.03999 
-0.64705 0.01675 2.05662 
-0.61324 0.08600 2.03923 
-0.65160 0.14319 2.04301 
-0.59357 0.21966 2.03375 
-0.63062 0.28560 2.03496 
-0.59030 0.35396 2.03383 
-0.62070 0.41047 2.03242 
-0.57587 0.48467 2.03242 
-0.52283 -0.57811 2.01640 
-0.55053 -0.51759 2.01643 
-0.53383 -0.46678 2.02495 
-0.57425 -0.39525 2.02155 
-0.53644 -0.33498 2.03294 
-0.56819 -0.27054 2.03176 
-0.49731 -0.20481 2.04471 
-0.50562 -0.11985 2.03650 
-0.49042 -0.03641 2.04866 
-0.55471 0.02942 2.04606 
-0.51960 0.09097 2.04004 
-0.56306 0.14688 2.04568 
-0.51937 0.21665 2.03391 
-0.55318 0.28840 2.04210 
-0.51446 0.35417 2.02719 
-0.55272 0.42233 2.03740 
-0.51094 0.48614 2.02396 
-0.45350 -0.59007 2.01788 
-0.49390 -0.53406 2.01488 
-0.45621 -0.47094 2.02593 
-0.49544 -0.40259 2.01967 
-0.44559 -0.34012 2.03392 
-0.47593 -0.27423 2.02713 
-0.42292 -0.19895 2.03715 
-0.45835 -0.12326 2.03844 
-0.42171 -0.04545 2.04035 
-0.46654 0.02933 2.03183 
-0.43306 0.09222 2.04395 
-0.48028 0.15939 2.03183 
-0.43888 0.22617 2.04077 
-0.47467 0.29480 2.03126 
-0.43458 0.36651 2.03730 
-0.47262 0.42426 2.03359 
-0.43481 0.51101 2.03355 
-0.50419 0.55042 2.03039 
-0.44523 0.58723 2.02931 
-0.42222 -0.64792 2.01832 
-0.38680 -0.61148 2.01608 
-0.41682 -0.54047 2.02748 
-0.37676 -0.47479 2.02035 
-0.41256 -0.40483 2.03446 
-0.36271 -0.33906 2.02623 
-0.39288 -0.26935 2.04153 
-0.35600 -0.19500 2.03138 
-0.38523 -0.12006 2.04466 
-0.35302 -0.04799 2.03212 
-0.38556 0.02774 2.04052 
-0.35229 0.09515 2.02999 
-0.39725 0.15854 2.03280 
-0.35792 0.23128 2.03032 
-0.39908 0.29321 2.02689 
-0.35744 0.36635 2.03129 
-0.39438 0.43451 2.02388 
-0.35373 0.50653 2.03287 
-0.38551 0.57486 2.02214 
-0.36786 0.63500 2.02817 
-0.31316 -0.70549 2.01928 
-0.36244 -0.65917 2.01833 
-0.30717 -0.62608 2.02519 
-0.34531 -0.54785 2.02743 
-0.29586 -0.47640 2.03369 
-0.33002 -0.40881 2.03464 
-0.28196 -0.33574 2.03876 
-0.32073 -0.26678 2.03869 
-0.27632 -0.19142 2.04152 
-0.31839 -0.12271 2.04171 
-0.27523 -0.04784 2.03947 
-0.31680 0.02030 2.04266 
-0.27690 0.09041 2.03498 
-0.31634 0.16150 2.04196 
-0.27868 0.22798 2.02834 
-0.31869 0.29994 2.03781 
-0.27970 0.36657 2.02355 
-0.31476 0.44130 2.03399 
-0.27366 0.50970 2.02146 
-0.30754 0.58954 2.03006 
-0.24919 0.65298 2.02074 
-0.30798 0.66762 2.02704 
-0.22311 -0.75592 2.02098 
-0.25183 -0.69156 2.01584 
-0.22736 -0.61898 2.03143 
-0.26642 -0.54881 2.02119 
-0.21762 -0.47865 2.03502 
-0.24921 -0.40707 2.02582 
-0.20738 -0.33550 2.03875 
-0.24216 -0.26354 2.02935 
-0.20416 -0.19255 2.04214 
-0.23953 -0.11977 2.03153 
-0.20153 -0.05085 2.04318 
-0.23649 0.02264 2.03101 
-0.19878 0.09037 2.04303 
-0.23581 0.16301 2.03106 
-0.19799 0.23073 2.03997 
-0.23888 0.29926 2.03052 
-0.19928 0.36887 2.03581 
-0.23943 0.43571 2.03139 
-0.19428 0.50824 2.03115 
-0.23120 0.57891 2.03287 
-0.17480 0.66031 2.02512 
-0.22392 0.71081 2.02596 
-0.11232 -0.78785 2.01986 
-0.17658 -0.70565 2.02574 
-0.15111 -0.61788 2.02181 
-0.18600 -0.54330 2.03428 
-0.13638 -0.47231 2.02706 
-0.16921 -0.40167 2.03757 
-0.12670 -0.32999 2.02860 
-0.16288 -0.25956 2.03875 
-0.12322 -0.18781 2.03046 
-0.16132 -0.11859 2.03839 
-0.12027 -0.04675 2.03108 
-0.16029 0.02001 2.03527 
-0.11802 0.09347 2.03086 
-0.15956 0.15826 2.03072 
-0.11784 0.23112 2.03155 
-0.15931 0.29660 2.02541 
-0.11924 0.36518 2.03230 
-0.15938 0.43414 2.02166 
-0.11702 0.49821 2.03339 
-0.15009 0.57370 2.01983 
-0.10229 0.63342 2.03400 
-0.14175 0.73223 2.02519 
0.06949 -0.72835 2.03954 
-0.10135 -0.71764 2.03412 
-0.07324 -0.58567 2.03944 
-0.10307 -0.53729 2.03496 
-0.05380 -0.45495 2.03792 
-0.09136 -0.40053 2.03887 
-0.04708 -0.32313 2.03698 
-0.08738 -0.25967 2.04111 
-0.04498 -0.18626 2.03585 
-0.08433 -0.11884 2.04257 
-0.04310 -0.04813 2.03430 
-0.08119 0.02175 2.04228 
-0.04086 0.09046 2.03082 
-0.07872 0.16195 2.04107 
-0.03895 0.22905 2.02741 
-0.07847 0.30072 2.03812 
-0.03865 0.36664 2.02338 
-0.07860 0.43722 2.03308 
-0.03726 0.50328 2.02029 
-0.07014 0.56744 2.02629 
-0.02577 0.64554 2.01912 
-0.07587 0.70510 2.02091 
-0.04473 0.75532 2.02178 
-0.01388 -0.54980 2.06699 
-0.09680 -0.72901 2.04380 
-0.01433 -0.65681 2.01510 
0.04523 -0.58759 2.03996 
-0.01181 -0.51872 2.02601 
0.03331 -0.45684 2.03980 
-0.00771 -0.38902 2.02790 
0.03228 -0.32272 2.04096 
-0.00519 -0.25255 2.02934 
0.03422 -0.18457 2.04158 
-0.00260 -0.11353 2.03040 
0.03725 -0.04493 2.04187 
-0.00006 0.02587 2.03113 
0.04031 0.09500 2.04035 
0.00175 0.16419 2.03126 
0.04227 0.23438 2.03833 
0.00209 0.29999 2.03196 
0.04218 0.37203 2.03500 
0.00329 0.43359 2.03195 
0.04310 0.50580 2.02956 
0.00573 0.56829 2.03273 
0.04405 0.64138 2.02292 
0.01282 0.71296 2.02824 
0.06011 0.75897 2.02045 
0.08350 -0.78564 2.02331 
0.07395 -0.71590 2.03489 
0.12425 -0.61416 2.02180 
0.08107 -0.53007 2.03237 
0.11782 -0.46766 2.02686 
0.07405 -0.39303 2.03293 
0.11484 -0.32488 2.02848 
0.07321 -0.25456 2.03256 
0.11598 -0.18324 2.02938 
0.07493 -0.11542 2.03176 
0.11839 -0.04259 2.03034 
0.07778 0.02386 2.02982 
0.12083 0.09708 2.03087 
0.08074 0.16313 2.02720 
0.12259 0.23567 2.03060 
0.08274 0.30182 2.02433 
0.12430 0.37223 2.03053 
0.08380 0.43841 2.01976 
0.12778 0.50438 2.02972 
0.08353 0.57199 2.01717 
0.12116 0.63587 2.03133 
0.09935 0.70858 2.01802 
0.19285 -0.75119 2.02404 
0.14526 -0.70369 2.02736 
0.19946 -0.61158 2.03010 
0.16193 -0.54227 2.03479 
0.19422 -0.47041 2.02839 
0.15321 -0.39785 2.03848 
0.19060 -0.32706 2.02930 
0.15296 -0.25519 2.03969 
0.19238 -0.18526 2.02844 
0.15574 -0.11368 2.03964 
0.19581 -0.04436 2.02815 
0.15913 0.02732 2.03955 
0.19921 0.09642 2.02639 
0.16187 0.16823 2.03782 
0.20184 0.23771 2.02409 
0.16307 0.30928 2.03502 
0.20338 0.37971 2.02146 
0.16254 0.44959 2.03140 
0.20257 0.52209 2.01855 
0.16160 0.58176 2.02532 
0.18555 0.67349 2.01766 
0.15567 0.75113 2.02295 
0.28147 -0.69975 2.02309 
0.21984 -0.68593 2.01727 
0.27567 -0.62281 2.02746 
0.24097 -0.54257 2.02106 
0.27131 -0.47112 2.03435 
0.23324 -0.39732 2.02521 
0.27019 -0.32649 2.03643 
0.23330 -0.25402 2.02748 
0.27335 -0.18389 2.03705 
0.23606 -0.11260 2.02893 
0.27739 -0.04256 2.03744 
0.23905 0.02778 2.02985 
0.28062 0.09849 2.03595 
0.24127 0.16835 2.02957 
0.28228 0.24011 2.03478 
0.24232 0.30971 2.02843 
0.28194 0.38237 2.03280 
0.24190 0.45135 2.02678 
0.27781 0.52342 2.03056 
0.23131 0.58916 2.02254 
0.25929 0.65343 2.02776 
0.23424 0.71270 2.01976 
0.33658 -0.65321 2.01968 
0.35270 -0.60491 2.02008 
0.31068 -0.54214 2.02369 
0.35008 -0.46714 2.02033 
0.30667 -0.39898 2.02438 
0.34930 -0.32464 2.02359 
0.30858 -0.25625 2.02448 
0.35246 -0.18358 2.02692 
0.31307 -0.11459 2.02513 
0.35642 -0.04342 2.02830 
0.31714 0.02660 2.02435 
0.35930 0.09705 2.02795 
0.31995 0.16829 2.02301 
0.36054 0.23866 2.02717 
0.32127 0.31108 2.02100 
0.36045 0.38060 2.02475 
0.32133 0.45439 2.01986 
0.35736 0.52140 2.02123 
0.31730 0.59959 2.01816 
0.37546 0.64616 2.01999 
0.31539 0.67480 2.02011 
0.39121 -0.64743 2.02232 
0.42694 -0.59229 2.01803 
0.38516 -0.53795 2.02922 
0.42311 -0.46680 2.01950 
0.38619 -0.39699 2.03219 
0.42375 -0.32801 2.01928 
0.38974 -0.25487 2.03314 
0.42882 -0.18633 2.02019 
0.39509 -0.11369 2.03415 
0.43467 -0.04501 2.02048 
0.39917 0.02659 2.03357 
0.43820 0.09577 2.02013 
0.40130 0.16718 2.03289 
0.43908 0.23804 2.01980 
0.40134 0.30892 2.03204 
0.43939 0.38087 2.01892 
0.39991 0.45073 2.03101 
0.44351 0.52557 2.01803 
0.39425 0.58683 2.02826 
0.45408 0.60256 2.01983 
0.49309 -0.57685 2.02059 
0.46043 -0.52797 2.01789 
0.50137 -0.46379 2.02662 
0.46470 -0.39566 2.01970 
0.50437 -0.32824 2.02899 
0.46658 -0.25673 2.02347 
0.51067 -0.18671 2.02879 
0.47157 -0.11621 2.02597 
0.51689 -0.04592 2.02834 
0.47668 0.02433 2.02642 
0.52007 0.09311 2.02908 
0.47779 0.16552 2.02686 
0.52024 0.23369 2.02927 
0.47810 0.30663 2.02488 
0.51978 0.37349 2.02978 
0.47871 0.44200 2.02051 
0.52011 0.50442 2.02881 
0.51246 0.56846 2.01963 
0.52188 -0.52230 2.01695 
0.56201 -0.44988 2.01777 
0.54004 -0.39654 2.01583 
0.57870 -0.32865 2.01942 
0.54157 -0.26159 2.01529 
0.58041 -0.19208 2.02382 
0.54986 -0.11814 2.01568 
0.59060 -0.05044 2.02512 
0.55669 0.02254 2.01619 
0.59443 0.09338 2.02625 
0.55714 0.16318 2.01680 
0.59146 0.23537 2.02633 
0.55592 0.30632 2.01645 
0.59612 0.37175 2.02258 
0.56147 0.43999 2.01723 
0.58575 0.50358 2.01939 
0.60762 -0.38893 2.02012 
0.64484 -0.32855 2.01593 
0.61987 -0.26409 2.02405 
0.65445 -0.19617 2.01220 
0.63646 -0.11909 2.02381 
0.67073 -0.05122 2.01451 
0.62786 0.02081 2.02148 
0.67464 0.09059 2.01516 
0.64364 0.16002 2.02564 
0.66626 0.23610 2.01481 
0.63431 0.30558 2.02676 
0.66445 0.36815 2.01901 
0.63031 0.43076 2.02291 
0.68602 -0.25381 2.01913 
0.70720 -0.15962 2.01986 
0.70704 -0.10291 2.01953 
0.73583 -0.02952 2.01794 
0.69363 0.01900 2.02658 
0.73839 0.06535 2.01815 
0.71358 0.14033 2.02097 
0.71697 0.19670 2.02251 
0.70065 0.29215 2.02265 
0.91878 0.39477 2.00000 
0.00000 0.00000 -1.50000 
CELLS 1023 3068
2 0 5
2 0 6
2 0 7
2 0 20
2 1 2
2 1 7
2 1 8
2 1 9
2 2 9
2 2 10
2 2 11
2 3 11
2 3 12
2 3 13
2 3 24
2 4 5
2 4 16
2 4 17
2 4 18
2 5 6
2 5 18
2 6 18
2 6 19
2 6 20
2 7 8
2 7 20
2 8 9
2 8 20
2 8 21
2 8 22
2 9 10
2 9 22
2 10 11
2 10 22
2 10 23
2 10 24
2 11 24
2 12 13
2 12 24
2 12 25
2 12 26
2 13 14
2 13 26
2 14 26
2 14 27
2 14 28
2 15 16
2 15 31
2 15 32
2 15 33
2 16 17
2 16 33
2 17 18
2 17 33
2 17 34
[...]
CELL_DATA 1023
SCALARS Strain double 
LOOKUP_TABLE default 
2189.24927
1643.36869
1965.00681
1086.75073
1362.48780
2072.26955
692.54644
1044.89766
518.64881
806.77368
957.19532
786.46568
663.92203
984.22829
813.69675
1757.45570
1125.39684
946.58671
659.45278
776.19847
1455.47821
1104.14288
1167.10884
1014.31615
1668.85016
991.12530
813.59639
913.33905
1237.10415
1257.59448
937.50771
800.96321
527.78305
623.93728
797.20775
887.98861
827.74294
649.80478
768.51480
761.55735
783.98065
822.69150
673.21023
688.82450
683.78956
726.37785
820.29137
816.78517
690.62216
639.89035
667.57343
745.39757
958.63964
860.29773
882.69425
777.72229
891.63975
1083.63600
1042.44802
658.86487
944.22327
1228.53738
923.08275
1005.28046
812.06122
1174.62578
952.80450
701.96647
789.01343
937.01069
688.75374
815.90120
936.70810
790.61590
963.41732
885.63163
755.41593
797.12468
741.64645
800.58251
792.76606
777.16363
640.82870
756.95473
760.29497
779.94459
865.86221
690.80654
665.86588
653.95908
971.94428
664.58621
702.66999
526.28518
540.62017
588.96790
821.31033
787.82228
776.40595
748.80164
719.50705
790.70273
717.45028
800.78567
908.97648
858.39443
974.23936
923.47961
856.57439
746.36039
749.09100
905.00258
855.86562
473.31110
919.46492
930.49101
697.00393
718.38759
710.09770
892.06868
709.42689
816.38310
865.38173
792.46038
830.53714
847.59615
796.37107
692.62473
812.38036
899.72530
776.67554
794.19722
787.28189
714.85806
813.63625
817.81504
773.47984
801.13825
733.16594
805.64635
648.55671
690.28643
656.65296
699.73963
623.29898
742.33562
782.61377
789.60113
798.21875
796.41437
795.85294
810.83736
841.21334
727.51650
725.54539
831.47221
884.70153
925.17456
843.30085
834.84516
765.65857
671.80318
876.52895
859.19080
733.48116
875.10910
830.54127
691.35516
815.37548
721.66257
813.64733
828.94892
800.60477
819.23888
760.92149
789.77124
829.30937
778.79407
797.15240
816.98523
790.93700
822.78229
756.30845
691.55127
820.03400
772.74265
800.16932
945.28179
794.04809
797.60796
769.48325
869.63557
811.03706
813.73071
694.15108
613.03675
908.31257
507.61617
607.31863
778.38790
534.98420
813.69141
767.05791
771.66548
717.90636
797.46371
797.62681
819.03511
820.11646
828.31423
825.37508
773.86481
773.82007
816.80756
844.11072
835.16083
721.47797
814.28688
802.12965
803.02667
820.39172
798.27900
668.57037
827.56550
828.01876
780.37673
779.21639
758.10147
690.95282
776.71108
836.99436
756.02209
762.99134
826.29738
813.82748
743.47089
819.57072
792.28508
793.28433
841.71783
813.08407
777.83486
770.61582
780.22227
861.96710
830.95833
804.46754
760.15375
758.91485
808.37857
949.35474
628.62244
796.33128
754.54787
681.01549
675.35692
797.49240
1031.28961
628.83592
646.78473
869.61252
861.40069
802.73676
873.58997
870.18023
790.48936
756.41573
790.56440
781.87420
838.38143
874.48324
812.08596
790.12740
794.52572
744.83110
828.80846
874.20796
790.92944
804.69772
806.27968
720.67966
810.61315
863.53377
794.74619
797.83846
805.95977
737.48789
807.61492
809.31215
810.83198
814.91877
789.08963
784.33096
834.14845
775.18466
811.85529
827.71286
777.90241
814.75414
815.61287
784.10603
800.38771
831.06312
789.28005
812.76282
802.90912
806.73941
754.84782
870.55585
820.34546
798.86405
818.95071
865.99457
780.37748
770.27638
608.14134
770.82503
747.73596
632.22853
944.16049
705.68474
1151.99560
685.59869
780.68517
770.94374
808.62752
1005.11928
767.61327
861.92360
864.68561
815.63977
786.77372
718.72187
817.80566
908.77539
837.98561
809.39700
803.76997
762.93527
814.06024
879.22983
814.30595
798.31309
815.09304
786.77796
818.21627
854.52447
794.59921
784.17416
821.80138
788.26851
821.58369
822.67497
783.50733
762.65224
823.06872
804.77341
816.25091
792.62035
779.75789
762.95148
802.62199
824.48296
804.89819
776.63389
801.65384
796.87991
779.88416
831.44747
801.10577
776.95031
853.40357
805.57585
796.50671
823.63025
778.46084
796.85893
992.29682
822.21170
703.50013
901.21716
777.41751
790.48081
1085.81814
848.16282
1044.03164
1922.06100
723.82211
913.78588
765.41662
831.79131
1120.54385
859.84098
946.37556
868.13221
830.46841
785.05005
733.49000
849.74853
854.51723
837.14197
777.70028
797.34671
794.57495
802.46360
814.35716
822.95552
754.40371
793.10740
808.98919
783.35803
800.06983
829.62684
770.04817
778.49750
812.62160
771.53346
795.54550
847.67125
793.25856
768.57958
813.35115
771.26387
795.12207
838.62745
814.83001
776.51941
799.32275
789.26749
801.34229
796.19500
818.29220
804.00769
763.82646
809.95108
826.14435
775.97095
815.38892
834.27703
719.82331
808.83327
838.13102
776.89425
803.47814
736.98618
787.96862
774.09729
712.73816
996.88914
1711.57212
1988.58167
1127.73384
1349.29236
1077.60086
569.12247
954.18666
1183.90345
917.51591
958.98669
934.58207
660.33327
771.77944
870.47933
809.71359
890.82576
850.47855
751.91142
771.92376
793.66821
823.34335
848.35405
832.29802
782.48030
774.90785
793.27492
842.57513
821.67965
827.04929
798.85910
769.20307
806.61816
855.65146
803.97118
818.97288
814.42171
762.95478
817.53718
850.54948
790.88010
809.97841
824.44759
765.71285
820.15481
819.75964
783.13631
806.98833
815.74245
784.85433
817.36909
793.58357
788.74089
818.78358
722.46716
813.70762
808.33641
788.24398
900.05434
760.47215
777.55943
844.19819
699.48184
781.22639
589.93087
892.39267
716.43169
1048.14738
1987.16133
1188.27792
1131.99735
1899.84926
1713.78304
945.38116
1079.51268
904.07768
1314.77116
852.15981
681.00727
777.18577
936.84211
800.40294
876.44069
860.85847
759.16998
784.14270
819.06189
803.00734
820.68075
834.23514
798.46861
794.25538
783.94909
806.89451
805.32062
825.80795
807.38272
800.54243
774.58755
806.45881
804.66981
818.87760
806.42857
804.86745
777.74658
796.24024
809.95507
810.01483
801.99178
812.54836
789.99668
770.93022
816.41546
806.01526
797.83056
823.99599
809.29397
727.82022
816.75217
821.36535
797.20315
823.97745
814.74212
727.81601
792.41101
845.94696
784.37794
830.08078
793.27680
781.83684
799.39533
776.57322
870.67966
663.39361
871.46903
638.13701
958.12315
712.35219
1145.58949
1025.98874
1141.47453
726.44480
950.18394
920.34448
756.13096
820.96645
725.38524
817.11510
866.31892
869.36433
763.64990
790.20058
794.52280
793.98914
817.15953
829.48426
756.97402
801.22199
831.24966
799.71940
792.16274
814.44924
763.25515
806.78822
847.21104
811.18994
777.76505
807.41344
773.73032
813.36611
848.51752
819.06031
772.47618
799.59655
784.09574
823.29312
837.14827
818.80902
773.80111
782.78740
794.45342
840.22833
818.95041
812.81759
782.29674
739.67199
798.48918
861.97133
798.07071
802.70878
816.78302
648.04316
775.60809
844.59810
753.79612
790.00583
769.72918
677.19960
757.21626
929.71463
706.59107
672.17332
1023.65782
708.38734
1068.04293
772.21021
788.58557
780.51335
769.78760
809.40489
789.45835
801.27007
838.57937
861.91014
772.19137
828.12893
804.89050
810.30920
816.96692
821.88525
798.06032
845.24999
809.51825
811.66837
810.88096
799.17102
813.37114
846.82455
807.82618
809.30382
812.18978
791.26917
820.31904
840.24492
808.65512
804.04620
816.39125
793.39405
818.89951
832.77822
812.18731
797.24174
820.28046
798.74886
810.87192
826.18033
821.78081
794.22764
814.41663
803.02744
793.16367
814.08741
837.12971
794.14348
725.92395
812.61959
761.03605
729.76288
950.16573
700.60276
832.67395
959.65961
769.80376
624.46993
874.24870
633.30722
771.80433
721.13333
847.79241
875.57297
684.23735
793.32195
879.29187
786.52437
696.63140
834.41848
817.94713
800.07354
808.59906
805.69833
733.54283
817.15736
819.41798
800.70229
808.35269
812.22661
752.76771
807.59964
813.65042
796.58823
806.60459
816.68632
770.33695
803.76263
812.15285
794.59000
807.37463
821.49661
781.92224
803.26626
813.63970
790.02857
810.62595
827.21522
788.57099
804.13874
818.46277
785.37881
820.32890
827.66095
792.09279
798.83732
821.67298
788.47644
830.05558
805.08040
796.90339
808.20707
822.03186
800.25414
866.00890
701.96148
866.32559
647.34543
796.24013
604.20791
894.64552
508.24400
548.91460
755.27294
573.04028
752.32440
748.74840
846.77398
747.00538
808.13247
794.15639
729.32172
796.85269
855.97400
798.26086
794.96896
815.69968
745.53371
811.01735
848.25163
815.26231
793.64452
805.89804
766.03814
820.85011
832.91510
824.20167
802.86824
803.19773
785.54545
821.02543
820.78584
824.50375
814.37299
810.52855
791.94268
817.95140
812.39018
818.56220
825.10626
823.88361
787.85401
812.92312
797.96853
807.62847
835.58760
827.48195
790.58025
806.05136
759.98887
793.49312
878.08710
829.73147
862.10907
753.34827
744.22036
751.58394
785.45377
664.43150
626.81509
898.04672
657.43988
693.59346
678.76176
724.18121
811.22209
766.66294
798.74953
715.76210
785.44599
823.01897
795.00806
794.08888
817.44300
789.78153
810.96945
831.58288
798.57020
773.71304
811.96295
798.57356
822.00233
822.30449
803.37643
768.53145
808.85142
802.78562
825.05056
811.93784
804.55968
777.74159
812.82328
812.91738
823.06182
803.85591
812.62084
766.40401
811.24014
824.07317
817.28132
789.77087
823.42716
770.23756
810.53184
838.32786
813.53830
726.03593
874.81987
798.73860
791.78005
776.42853
906.05488
800.90965
811.22562
623.45172
675.09862
587.51209
616.79623
765.20944
616.17754
775.83319
626.47680
627.43512
782.25506
786.72976
753.39957
809.67326
780.63373
748.43145
774.47957
828.19892
754.96528
805.62823
820.31346
700.26201
799.58401
835.70580
788.93774
808.65747
802.93479
738.17606
800.10708
812.68146
805.75213
837.81752
804.43376
743.13770
801.19122
802.43297
799.24331
842.48926
804.53610
711.98607
818.26112
788.45214
781.79042
803.17656
773.35716
765.90631
793.74957
752.61300
827.49498
650.43008
773.41165
662.22776
977.86175
827.06487
576.23433
760.61896
781.05152
680.47004
766.58438
667.61830
661.30317
766.15120
799.81491
787.23169
803.12330
820.09844
749.59173
919.32999
794.73038
868.82316
808.71042
824.62648
807.27559
803.85660
807.99551
712.92815
795.98530
799.49235
809.21729
827.39012
803.95517
869.04278
798.56271
915.60229
755.93753
821.56709
769.40099
789.69537
766.13836
764.17114
684.23240
680.93738
680.06569
695.87332
853.42267
709.48719
695.06638
852.98887
770.28849
670.20254
799.01365
659.78712
645.32007
764.94990
815.26039
724.37112
840.03454
632.75421
686.08924
747.40694
841.52358
658.92358
766.55128
748.41206
685.33248
633.27916
800.06608
727.07020
819.50896
773.05069
645.73687
661.17681
697.78577
677.06306
713.18780
841.60280
964.42369
566.08301
787.50128
647.84945
948.07414
648.80704
789.29518
563.95798
967.31481
0.10000
