# vtk DataFile Version 3.0
Point representing Sub_cellular elem model
ASCII

DATASET UNSTRUCTURED_GRID
POINTS 364 float
-0.66699 -0.01557 1.95404 
-0.84967 -0.12540 2.02970 
-0.86414 0.01450 2.02406 
-0.83994 0.20743 2.02235 
-0.79596 -0.31647 1.89661 
-0.83630 -0.14299 1.88062 
-0.76756 -0.14405 1.93280 
-0.65210 -0.20145 2.02972 
-0.77115 -0.10181 2.01688 
-0.81816 -0.02693 2.01157 
-0.80072 0.07236 2.02142 
-0.84234 0.12266 2.01930 
-0.78137 0.25291 2.03241 
-0.81854 0.31801 2.02739 
-0.77555 0.40599 2.03573 
-0.67679 -0.48670 1.90407 
-0.73391 -0.40923 1.89819 
-0.70316 -0.34457 1.92353 
-0.75045 -0.25589 1.90819 
-0.68047 -0.21815 1.95515 
-0.68737 -0.12379 1.96557 
-0.67421 -0.02979 1.99973 
-0.74892 0.01382 2.00184 
-0.70538 0.09483 2.00911 
-0.76338 0.16500 2.01138 
-0.69659 0.25307 2.01805 
-0.74415 0.33413 2.02180 
-0.69793 0.41012 2.03242 
-0.73571 0.47811 2.03403 
-0.68285 0.56052 2.04358 
-0.59356 -0.63265 1.89080 
-0.62972 -0.57256 1.90098 
-0.60570 -0.50518 1.90720 
-0.65639 -0.42941 1.92369 
-0.60933 -0.35793 1.93316 
-0.65765 -0.28178 1.95204 
-0.57913 -0.21612 1.96133 
-0.60343 -0.12946 1.99593 
-0.57342 -0.03737 1.98685 
-0.65114 0.02523 2.00932 
-0.60621 0.10586 2.00084 
-0.66038 0.17326 2.02369 
-0.61295 0.25549 2.01403 
-0.65377 0.33502 2.03611 
-0.60982 0.41289 2.02383 
-0.65678 0.48788 2.04454 
-0.60738 0.56180 2.03368 
-0.51959 -0.65640 1.90529 
-0.55748 -0.58037 1.91285 
-0.51733 -0.51683 1.93405 
-0.56209 -0.43685 1.93943 
-0.51483 -0.36713 1.96210 
-0.54832 -0.29528 1.96820 
-0.49038 -0.21712 1.99110 
-0.52507 -0.13040 1.98998 
-0.48440 -0.04644 2.01131 
-0.54084 0.03832 2.00784 
-0.50901 0.10742 2.02032 
-0.56157 0.18271 2.01722 
-0.51789 0.26155 2.03089 
-0.56257 0.33679 2.02814 
-0.51727 0.42081 2.04238 
-0.56064 0.48982 2.04303 
-0.51976 0.58465 2.05236 
-0.59756 0.63419 2.04911 
-0.53126 0.67212 2.05235 
-0.47510 -0.71690 1.89313 
-0.42950 -0.66838 1.91304 
-0.46915 -0.59280 1.91077 
-0.42291 -0.52290 1.94337 
-0.46682 -0.44196 1.93927 
-0.41270 -0.37337 1.97002 
-0.45187 -0.29395 1.96427 
-0.40235 -0.21534 1.98998 
-0.44393 -0.13126 1.98632 
-0.39848 -0.04979 2.00574 
-0.44640 0.03641 2.00006 
-0.40893 0.11264 2.01823 
-0.46446 0.18831 2.01091 
-0.42076 0.26576 2.02725 
-0.47039 0.34246 2.02137 
-0.42312 0.42213 2.03818 
-0.46911 0.50067 2.03262 
-0.41986 0.57989 2.05126 
-0.46247 0.65490 2.04244 
-0.44080 0.72192 2.05652 
-0.34095 -0.76732 1.89838 
-0.41250 -0.72945 1.90413 
-0.34139 -0.68643 1.90949 
-0.37868 -0.60530 1.93312 
-0.32909 -0.52762 1.93712 
-0.37443 -0.45119 1.96233 
-0.31833 -0.37438 1.96242 
-0.36157 -0.29780 1.98851 
-0.31219 -0.21532 1.98467 
-0.35465 -0.13537 2.00880 
-0.31036 -0.05155 2.00025 
-0.35662 0.03005 2.02223 
-0.31480 0.11212 2.01208 
-0.37114 0.18744 2.03154 
-0.32554 0.26840 2.02177 
-0.37817 0.34469 2.04067 
-0.33015 0.42543 2.03137 
-0.37921 0.50464 2.05115 
-0.32774 0.58327 2.04093 
-0.37459 0.66914 2.05977 
-0.30836 0.73124 2.04965 
-0.37316 0.75446 2.05893 
-0.24002 -0.80986 1.90139 
-0.27291 -0.74458 1.92121 
-0.23858 -0.67829 1.92831 
-0.28731 -0.60772 1.94043 
-0.23785 -0.53502 1.95815 
-0.27702 -0.45539 1.96569 
-0.22768 -0.37991 1.98344 
-0.26965 -0.29758 1.98706 
-0.22179 -0.22002 2.00522 
-0.26546 -0.13612 2.00420 
-0.22025 -0.05692 2.02088 
-0.26665 0.02741 2.01687 
-0.22441 0.10577 2.03314 
-0.27494 0.18808 2.02809 
-0.23405 0.26445 2.04171 
-0.28310 0.34491 2.03531 
-0.24037 0.42271 2.05075 
-0.28637 0.50285 2.04401 
-0.24182 0.58273 2.05990 
-0.27592 0.65843 2.05579 
-0.22486 0.75582 2.06565 
-0.28033 0.79872 2.06279 
-0.13995 -0.81384 1.91075 
-0.18760 -0.75442 1.90819 
-0.13878 -0.68364 1.93616 
-0.19300 -0.61049 1.93305 
-0.14090 -0.53762 1.95898 
-0.18350 -0.45710 1.95703 
-0.13479 -0.38049 1.98052 
-0.17778 -0.29846 1.97936 
-0.13083 -0.22017 1.99919 
-0.17536 -0.13706 1.99796 
-0.12967 -0.05847 2.01361 
-0.17597 0.02582 2.01147 
-0.13258 0.10279 2.02463 
-0.18060 0.18738 2.02243 
-0.13978 0.26074 2.03420 
-0.18786 0.34504 2.03204 
-0.14783 0.41451 2.04060 
-0.19251 0.50150 2.04210 
-0.15496 0.56448 2.04530 
-0.19562 0.65071 2.05392 
-0.15010 0.71452 2.04780 
-0.19304 0.84530 2.06122 
-0.06315 -0.82420 1.90770 
-0.10236 -0.76123 1.92573 
-0.04875 -0.68974 1.92517 
-0.10089 -0.61611 1.95186 
-0.04671 -0.53913 1.95052 
-0.09253 -0.46225 1.97692 
-0.04240 -0.38139 1.97228 
-0.08685 -0.30307 1.99812 
-0.03949 -0.22072 1.99126 
-0.08425 -0.14180 2.01589 
-0.03853 -0.05937 2.00741 
-0.08482 0.01990 2.02964 
-0.03991 0.10165 2.01941 
-0.08913 0.17981 2.04116 
-0.04395 0.26054 2.03043 
-0.09610 0.33631 2.05073 
-0.04965 0.41563 2.03996 
-0.10180 0.49017 2.05894 
-0.05676 0.56709 2.04965 
-0.10509 0.64196 2.06616 
-0.06183 0.72283 2.06135 
-0.12769 0.79803 2.06816 
-0.08537 0.85643 2.06567 
-0.00600 -0.82969 1.91195 
0.04477 -0.82438 1.91595 
-0.00828 -0.76947 1.92189 
0.03873 -0.69459 1.94491 
-0.00215 -0.61613 1.94899 
0.04476 -0.54264 1.96840 
0.00127 -0.46221 1.97193 
0.04905 -0.38444 1.98990 
0.00483 -0.30273 1.99156 
0.05223 -0.22393 2.00838 
0.00706 -0.14185 2.00769 
0.05350 -0.06326 2.02429 
0.00694 0.01865 2.02082 
0.05232 0.09677 2.03645 
0.00386 0.17766 2.03079 
0.04865 0.25510 2.04718 
-0.00202 0.33363 2.03896 
0.04324 0.41153 2.05629 
-0.00894 0.48668 2.04336 
0.03597 0.56731 2.06246 
-0.01585 0.64097 2.04661 
0.01752 0.72987 2.06701 
-0.02885 0.80637 2.05488 
0.03525 0.85614 2.06504 
0.12478 -0.81858 1.91412 
0.08695 -0.76535 1.91941 
0.12823 -0.68690 1.93433 
0.09363 -0.61891 1.94245 
0.13892 -0.54132 1.96036 
0.09431 -0.46261 1.96360 
0.14104 -0.38314 1.98189 
0.09661 -0.30254 1.98287 
0.14375 -0.22279 1.99948 
0.09864 -0.14174 1.99990 
0.14531 -0.06252 2.01428 
0.09908 0.01871 2.01374 
0.14468 0.09694 2.02609 
0.09739 0.17835 2.02543 
0.14153 0.25503 2.03471 
0.09335 0.33640 2.03607 
0.13604 0.41111 2.04115 
0.08622 0.49214 2.04492 
0.12768 0.56549 2.04395 
0.07159 0.64131 2.05688 
0.10571 0.71997 2.04741 
0.07251 0.80062 2.06684 
0.22404 -0.81763 1.91782 
0.17224 -0.76392 1.93489 
0.22752 -0.68802 1.93760 
0.18563 -0.62085 1.95841 
0.23186 -0.54212 1.95245 
0.18605 -0.46388 1.98007 
0.23273 -0.38246 1.97289 
0.18880 -0.30370 1.99920 
0.23539 -0.22179 1.98984 
0.19132 -0.14342 2.01538 
0.23722 -0.06147 2.00582 
0.19201 0.01638 2.03001 
0.23688 0.09855 2.01844 
0.19037 0.17567 2.04159 
0.23406 0.25833 2.02932 
0.18627 0.33424 2.05128 
0.22778 0.41809 2.03944 
0.17899 0.49271 2.05967 
0.21610 0.57901 2.04944 
0.16245 0.65265 2.06555 
0.18732 0.75394 2.06037 
0.14722 0.83407 2.06149 
0.32438 -0.78103 1.92547 
0.25702 -0.75074 1.91798 
0.32891 -0.70320 1.94253 
0.27770 -0.61770 1.94561 
0.32345 -0.54183 1.96842 
0.27750 -0.46165 1.96961 
0.32511 -0.38184 1.98788 
0.28001 -0.30189 1.98942 
0.32848 -0.22166 2.00490 
0.28281 -0.14169 2.00587 
0.33070 -0.06187 2.02053 
0.28377 0.01823 2.01952 
0.33035 0.09803 2.03281 
0.28223 0.17798 2.02983 
0.32700 0.25842 2.04447 
0.27798 0.33772 2.03752 
0.31961 0.42050 2.05405 
0.27070 0.49896 2.04367 
0.30598 0.58614 2.06154 
0.25487 0.66455 2.04794 
0.27214 0.74992 2.06667 
0.23999 0.81466 2.06024 
0.39697 -0.74926 1.92393 
0.41619 -0.68481 1.93528 
0.36672 -0.61986 1.94083 
0.41404 -0.53752 1.95511 
0.36843 -0.46091 1.96007 
0.41547 -0.37992 1.97638 
0.37117 -0.30047 1.97806 
0.41886 -0.22035 1.99569 
0.37442 -0.14003 1.99526 
0.42133 -0.05993 2.01089 
0.37527 0.02041 2.00917 
0.42074 0.10059 2.02229 
0.37300 0.18139 2.02118 
0.41669 0.26145 2.03185 
0.36672 0.34372 2.03182 
0.40949 0.42323 2.03868 
0.35564 0.50800 2.04312 
0.39780 0.58929 2.04515 
0.34115 0.67985 2.05243 
0.40663 0.73729 2.05509 
0.33893 0.76932 2.05752 
0.46038 -0.73805 1.93142 
0.50721 -0.67884 1.93131 
0.45888 -0.61488 1.95462 
0.50490 -0.53559 1.94697 
0.46084 -0.45899 1.97483 
0.50600 -0.37930 1.96393 
0.46442 -0.29959 1.99199 
0.50969 -0.21870 1.98162 
0.46828 -0.13957 2.00852 
0.51270 -0.05760 1.99702 
0.46927 0.02022 2.02223 
0.51148 0.10312 2.01022 
0.46652 0.18053 2.03474 
0.50482 0.26589 2.02272 
0.45908 0.34294 2.04608 
0.49466 0.43003 2.03429 
0.44669 0.50775 2.05573 
0.48927 0.59778 2.04433 
0.43119 0.66940 2.06189 
0.49914 0.68638 2.05141 
0.58144 -0.65771 1.93890 
0.54506 -0.60278 1.94280 
0.59528 -0.53222 1.95984 
0.55161 -0.45686 1.96237 
0.59841 -0.37979 1.97807 
0.55237 -0.30054 1.98263 
0.60310 -0.21885 1.99327 
0.55610 -0.13910 2.00004 
0.60660 -0.05770 2.00747 
0.55817 0.02241 2.01336 
0.60534 0.10163 2.02181 
0.55326 0.18400 2.02545 
0.59816 0.26316 2.03481 
0.54606 0.34488 2.03368 
0.58759 0.42455 2.04699 
0.53695 0.50191 2.03869 
0.57876 0.57664 2.05562 
0.56622 0.65018 2.04806 
0.62015 -0.59972 1.93913 
0.66251 -0.51889 1.95063 
0.64194 -0.45494 1.95171 
0.68497 -0.37799 1.96781 
0.64174 -0.30113 1.96703 
0.68467 -0.22191 1.98800 
0.64727 -0.13704 1.98311 
0.69197 -0.05907 2.00332 
0.65007 0.02420 1.99755 
0.68942 0.10674 2.01757 
0.64304 0.18583 2.01106 
0.67695 0.26991 2.02940 
0.63188 0.35065 2.02311 
0.67401 0.42713 2.03532 
0.62877 0.50460 2.03507 
0.65349 0.57775 2.04205 
0.71824 -0.44347 1.95999 
0.76392 -0.37463 1.96039 
0.73100 -0.30361 1.97818 
0.77003 -0.22306 1.96964 
0.74611 -0.13656 1.99324 
0.78370 -0.05587 1.98715 
0.73111 0.02441 2.00392 
0.78080 0.10762 2.00116 
0.74174 0.18509 2.02197 
0.76135 0.27507 2.01342 
0.72183 0.35199 2.03598 
0.74986 0.42680 2.03010 
0.70819 0.49696 2.04095 
0.80705 -0.28951 1.97293 
0.82891 -0.17964 1.98334 
0.82574 -0.11514 1.98854 
0.85628 -0.02808 1.99305 
0.80644 0.02501 2.00995 
0.85448 0.08168 2.00220 
0.82125 0.16679 2.01304 
0.82161 0.23190 2.01983 
0.79675 0.34043 2.02805 
0.91919 0.39780 1.96267 
0.00000 0.00000 -1.50000 
CELLS 1023 3068
2 0 5
2 0 6
2 0 7
2 0 20
2 1 2
2 1 7
2 1 8
2 1 9
2 2 9
2 2 10
2 2 11
2 3 11
2 3 12
2 3 13
2 3 24
2 4 5
2 4 16
2 4 17
2 4 18
2 5 6
2 5 18
2 6 18
2 6 19
2 6 20
2 7 8
2 7 20
2 8 9
2 8 20
2 8 21
2 8 22
2 9 10
2 9 22
2 10 11
2 10 22
2 10 23
2 10 24
2 11 24
2 12 13
2 12 24
2 12 25
2 12 26
2 13 14
2 13 26
2 14 26
2 14 27
2 14 28
2 15 16
2 15 31
2 15 32
2 15 33
2 16 17
2 16 33
2 17 18
2 17 33
2 17 34
[...]
CELL_DATA 1023
SCALARS Strain double 
LOOKUP_TABLE default 
2241.61773
1644.38711
2011.50293
1106.21919
1406.57970
2116.07196
828.91260
1048.68039
630.38205
857.91054
1103.38744
847.59427
747.30481
1126.48051
881.16016
1787.21563
1115.04046
1005.26471
765.42898
862.11166
1443.88730
1156.87139
1164.04565
888.61474
1556.79602
1066.31428
884.68049
1005.71562
1218.73847
1185.95734
1011.91661
808.27520
652.20151
804.87518
986.23567
1002.83228
898.42447
750.39767
920.60206
858.88339
898.76098
981.69503
762.22598
795.45581
777.03970
823.18580
963.39236
978.58543
734.12530
638.01918
758.46070
839.73179
1015.64550
967.79392
951.67157
825.27534
922.41003
1057.58118
950.86102
675.74378
1014.47836
1242.61307
1007.71369
893.46787
864.33694
1221.98528
1017.84879
603.26019
921.59058
986.30810
909.69799
881.42357
1000.22529
914.92435
1106.30469
1039.63577
939.58452
877.20790
836.76883
941.16383
894.79509
914.13800
776.97125
871.00999
884.70293
887.02756
982.61712
801.18977
770.77438
760.33061
1127.40522
707.67959
789.26697
671.30921
717.06455
735.23835
925.31634
894.08294
929.93530
871.30617
860.05980
957.90710
920.39902
920.92197
991.61612
941.07692
1026.71596
1112.30714
963.27665
851.19949
935.19275
1052.17242
971.79280
784.86801
1021.82891
1047.92967
926.66108
849.29793
925.92938
1109.75253
893.41293
941.49412
990.41593
902.71666
953.13708
993.72773
919.86128
890.46226
966.28150
965.84447
901.47489
914.66958
907.76551
895.74733
946.26806
932.05451
894.72238
960.76484
862.37644
923.56107
745.64470
851.80423
759.72356
911.09544
812.53892
779.96014
891.30596
917.11294
928.24757
949.69033
903.71771
871.27087
953.10151
794.14423
916.89497
1025.26021
964.57593
998.53303
964.43653
933.07286
899.38882
879.56959
976.29470
955.96189
811.29838
1017.93112
971.50173
860.71158
917.40854
769.93477
946.83550
917.71583
967.12407
1001.37841
927.26779
910.62201
973.76118
874.49100
927.40244
971.89238
942.09764
964.10558
925.01295
814.03555
935.89313
941.44703
936.62557
1035.87475
926.56744
921.97380
881.21776
999.37324
999.18597
910.88115
763.54632
714.97750
1032.46125
694.00596
646.89033
852.71262
639.15720
899.08302
833.52982
898.26117
939.16671
920.68093
939.80766
940.53117
885.10294
925.23887
955.64400
886.37796
869.60819
945.81247
929.93272
962.99461
934.77357
937.70600
919.00758
902.16763
948.98655
951.91362
920.58897
986.90530
960.99852
882.06769
915.46728
867.68890
925.98660
940.32968
977.51946
942.30709
847.52280
903.13593
954.76487
914.50452
927.14227
953.12667
905.92118
940.47929
941.46117
910.76277
894.83487
931.83386
942.62643
950.26675
917.78487
866.12860
854.29157
926.57569
1003.33711
717.34756
905.95341
846.34372
749.95049
810.62319
815.53108
1094.65251
751.79405
831.80678
922.61417
905.02584
1047.35809
1002.86783
921.45343
915.98747
922.76313
902.96190
938.23447
934.13506
950.20356
974.56436
916.35638
908.85152
931.19910
941.07665
961.10077
918.28905
935.81694
925.34260
927.20801
939.08471
950.87077
892.05000
962.41906
957.26432
924.97738
916.69832
925.60588
900.64341
959.50339
974.56140
929.28117
871.72833
933.23062
961.58498
944.88148
950.33158
936.21843
884.36899
942.99183
951.12461
951.47747
932.37634
917.89683
897.30981
944.29005
930.26793
995.19516
903.90203
878.89973
923.93291
912.55416
852.36124
992.30871
693.55739
798.50653
884.05020
741.42945
1028.19303
756.34273
1004.85477
764.99594
748.92214
867.55381
865.11773
937.04110
1001.57578
817.31442
895.89869
945.40071
889.71337
912.08068
968.91033
949.15964
918.09696
938.44754
923.85397
926.78186
928.36510
955.06497
928.28454
920.98436
944.91013
934.86736
910.66291
952.47587
926.04997
902.27537
962.37992
945.69086
907.82577
942.19102
903.93290
907.50423
966.19055
958.55110
921.72820
931.50106
875.91883
944.13998
943.48279
956.53249
945.40224
932.89091
899.97583
951.98043
925.50346
954.96927
933.56316
924.87158
927.34327
937.87525
830.27351
965.81069
898.48814
823.11179
1103.07467
805.88399
700.86793
1096.26353
871.56938
949.68058
1058.66128
988.44796
761.09925
774.53754
662.68353
903.22432
871.91070
910.02739
862.43774
907.97339
789.09359
931.62287
940.79443
910.13406
882.85834
944.72688
912.29605
936.68373
931.52603
925.27572
919.98153
926.54213
926.51758
933.14366
928.64929
941.99058
937.44876
915.85856
925.86321
921.45700
928.73935
960.95780
948.34142
912.54090
916.04044
892.26799
930.40263
971.98630
957.00936
927.29380
898.63006
846.66980
935.75606
969.74344
956.32756
958.04216
887.37593
805.35894
939.50633
977.01922
942.05699
980.81072
903.37780
732.95319
928.58442
956.26760
922.82778
982.35588
943.78930
785.22905
916.78788
872.35349
895.81162
887.30115
808.51207
1082.38515
762.40630
574.75491
786.93064
892.57786
944.22720
939.90091
893.68906
897.11323
902.19078
940.38585
986.74198
932.06739
888.83794
931.68859
930.48428
951.50041
938.37274
935.86327
917.69177
930.86353
936.53437
951.40717
918.06001
939.17779
931.14704
932.54939
929.43053
945.43204
915.78869
943.41169
941.46370
935.50294
911.93168
937.37929
920.83727
947.87749
952.16574
938.10981
883.43003
930.31271
934.89849
940.97835
955.79859
941.59645
845.94970
924.50024
947.58345
928.25099
947.43765
943.06927
818.54169
895.22332
941.19689
905.26417
936.71162
935.14774
844.04499
917.34718
912.58575
1000.93938
949.36524
797.65218
899.46559
720.69637
999.78107
761.75317
1205.22275
511.05784
609.76616
764.80710
801.37786
725.30648
912.59677
952.48948
884.64687
892.39211
903.49825
934.27767
892.18981
959.49756
914.02744
941.27541
944.10058
941.50328
929.32433
933.11458
928.18709
939.85919
922.47460
948.65561
933.89094
920.93287
935.86642
937.05312
918.60281
946.62466
926.83836
918.07952
941.92300
936.58606
922.56452
942.84947
915.83824
923.17808
943.61687
936.88549
928.40006
937.52050
908.47578
935.82875
937.11444
933.80590
936.17032
933.47834
916.49199
953.54282
922.96680
924.43650
939.24793
919.58010
941.55955
952.32525
913.50645
920.04795
934.73344
822.15837
970.19495
879.39459
901.68917
1041.51187
907.83077
895.09915
816.90146
1021.28014
667.93933
1140.76644
654.16957
992.31766
752.01394
897.90901
865.94302
766.18062
886.06390
992.50348
906.59623
915.02895
932.92618
904.28907
921.54035
931.84264
926.77190
938.93937
931.10481
919.39748
923.55076
920.36309
941.91955
940.22255
935.31144
926.58529
925.02808
920.45773
937.82460
929.64425
938.75355
933.65766
929.70773
922.02296
929.27114
912.84448
942.65696
940.56197
934.11634
924.31419
922.38897
888.61937
943.17153
944.74475
933.42341
926.43235
923.67577
860.86936
940.75874
950.93944
922.78913
919.26138
939.57852
841.65099
938.31076
950.95978
903.24424
895.13016
961.85531
861.63192
918.80039
892.49887
898.01598
892.40672
1240.00131
819.27243
764.45097
1069.84120
744.81642
938.42780
873.55727
817.47640
719.33941
1025.34127
866.57646
913.96081
929.06037
946.82010
885.56902
928.68042
939.86211
940.27228
919.77599
938.49768
909.28680
934.88985
947.64938
945.99292
916.52774
933.66335
915.95720
941.99358
943.54064
943.15180
919.03043
931.25195
921.65203
945.31367
932.07433
942.34059
922.75597
928.83311
929.11527
944.74173
920.67334
941.99285
925.38680
922.50640
935.91965
940.73478
909.92916
942.10389
927.00912
913.22568
946.82514
929.12156
915.45178
943.95945
932.06900
924.14124
969.73831
908.70652
938.30734
1043.28087
947.29910
895.16620
1126.29365
850.51084
802.85956
946.94253
741.40626
797.06997
791.48860
895.09784
996.10291
841.60106
893.97769
914.28350
913.80600
890.74911
923.18024
932.97056
915.70904
928.56988
946.15922
913.31268
917.03018
942.55275
910.05273
939.13352
949.03672
917.77183
920.02918
934.58090
907.56022
940.63830
941.27668
921.33536
927.47907
929.50190
910.55751
941.68688
932.50249
920.09943
932.61807
926.35480
909.38160
942.57605
931.24643
911.39438
933.85447
925.94479
905.24296
948.32374
940.23196
890.25231
929.34955
926.83396
911.23292
951.62941
956.30433
853.25831
944.83399
942.97207
932.26199
1004.06677
889.91580
876.36019
724.64832
992.75677
700.54889
1087.69959
681.06827
647.28526
817.33046
691.94364
911.98327
840.81547
959.39199
932.23646
891.99520
893.14730
911.38796
934.24566
949.67595
935.05526
908.82283
910.74854
912.89264
952.56218
947.93288
941.85851
916.90828
913.83462
918.33439
954.64060
940.35568
946.99647
925.25453
923.84690
923.49459
939.81129
930.02926
948.08356
937.63558
937.79247
914.74427
928.61222
917.32649
944.06023
961.56715
949.71458
886.04762
928.44438
904.49256
933.59438
1004.23350
945.65385
854.61052
938.04763
914.93765
918.17337
1069.63660
955.62226
917.66812
882.81073
870.50387
895.44299
910.36596
748.29877
724.21014
1055.63478
753.93073
833.84762
774.44784
856.26801
918.95569
877.21628
925.52514
782.94416
912.57374
927.28006
921.38383
915.38965
940.81466
898.88226
933.81563
931.93838
931.79017
883.59226
931.73717
922.03369
940.28068
938.65595
938.34881
881.29563
925.18137
922.88922
943.85360
933.69291
937.03569
892.70086
927.18181
931.99295
944.78704
921.96708
942.25362
872.08125
924.90820
950.87467
940.62018
896.78715
947.20268
877.78413
937.15907
993.60143
938.54031
834.09306
1001.37096
919.34825
937.68175
893.28804
1071.15419
925.45997
930.75519
707.26660
761.95700
658.97847
696.29328
881.71025
751.41810
870.33751
747.60146
690.52121
905.41399
914.28220
908.81539
916.61630
906.62041
870.88227
903.74696
966.39560
906.16258
927.11535
945.12378
817.03532
934.27293
959.80434
926.42762
936.95522
923.19005
853.76957
931.52138
924.83906
931.61241
974.23681
925.47083
842.42375
927.83775
913.83037
908.37819
968.22219
924.07092
791.61533
943.90279
907.29002
865.61147
927.35204
893.01725
871.42525
907.01875
871.87714
918.32376
748.83959
899.66904
758.56799
1134.68479
918.79850
670.85782
941.40135
895.16326
775.01147
880.91180
737.64065
792.68514
879.83305
924.14642
898.90788
927.78294
943.35531
872.14118
1051.90181
920.20657
992.62101
932.98448
949.70025
930.97617
921.05200
935.08897
811.97873
918.17321
931.89551
927.49013
942.11664
923.90130
992.11145
925.84366
1068.96468
859.55623
936.87214
880.69515
907.79962
896.12421
889.68391
759.29925
778.47301
774.25853
799.02038
974.66494
825.18688
801.74542
961.46185
898.10529
774.21662
926.98034
760.32461
743.31904
891.25147
937.57495
824.96211
973.28461
725.73991
778.41580
869.55974
968.49722
754.70358
891.21611
868.38360
780.19838
725.58029
923.87097
819.73849
925.02066
892.74903
743.03201
756.62462
800.06784
761.22072
822.21099
982.01861
1124.03706
646.92523
922.63289
746.51142
1100.54909
745.94835
919.13871
653.63180
1115.41458
0.10000
