# vtk DataFile Version 3.0
Point representing Sub_cellular elem model
ASCII

DATASET UNSTRUCTURED_GRID
POINTS 364 float
-0.59023 -0.02655 2.01853 
-0.77178 -0.11990 2.08481 
-0.79356 0.01390 2.04849 
-0.77379 0.17575 2.01886 
-0.73879 -0.30394 1.96515 
-0.76107 -0.12961 1.96355 
-0.68371 -0.14166 1.97206 
-0.58784 -0.20934 2.10051 
-0.70620 -0.10767 2.05868 
-0.74305 -0.04558 2.04512 
-0.72086 0.04985 2.03173 
-0.75550 0.11061 2.02404 
-0.71234 0.22159 2.02441 
-0.74424 0.29120 2.01088 
-0.70437 0.36961 2.01272 
-0.64093 -0.48347 1.97483 
-0.67654 -0.40634 1.97864 
-0.65742 -0.33668 1.97374 
-0.69584 -0.25050 1.99028 
-0.62549 -0.19951 1.98493 
-0.62595 -0.13725 2.06178 
-0.61318 -0.05818 2.01203 
-0.66707 0.01044 2.03658 
-0.63971 0.08304 2.00078 
-0.68615 0.14401 2.01211 
-0.62804 0.23065 1.99693 
-0.66946 0.29845 2.00174 
-0.62510 0.37403 2.00215 
-0.66398 0.43128 2.00159 
-0.61430 0.52025 2.00397 
-0.55070 -0.60605 1.98306 
-0.59568 -0.54116 1.98605 
-0.56294 -0.48712 1.98912 
-0.61289 -0.41313 1.99401 
-0.56534 -0.34435 1.99978 
-0.60400 -0.27285 2.00569 
-0.52687 -0.20297 2.01870 
-0.55193 -0.13541 2.01558 
-0.51889 -0.05024 2.02156 
-0.58318 0.01501 2.02554 
-0.54409 0.08667 2.00645 
-0.59055 0.15304 2.02129 
-0.54375 0.22405 1.99604 
-0.58345 0.30314 2.01775 
-0.54237 0.37352 1.98966 
-0.58686 0.45032 2.01243 
-0.53877 0.52076 1.98889 
-0.48116 -0.63049 1.99041 
-0.52321 -0.56516 1.97755 
-0.48087 -0.49532 2.00657 
-0.52305 -0.41922 1.98218 
-0.47310 -0.35110 2.01580 
-0.50828 -0.27650 1.99087 
-0.45885 -0.20577 2.02254 
-0.48710 -0.12898 1.99717 
-0.45392 -0.05266 2.02583 
-0.49476 0.02246 1.99359 
-0.45677 0.09191 2.02218 
-0.50126 0.16427 1.99350 
-0.45735 0.23521 2.01696 
-0.49593 0.30883 1.99627 
-0.45514 0.38513 2.01364 
-0.49729 0.44908 2.00400 
-0.45359 0.54221 2.00814 
-0.52568 0.59510 2.00170 
-0.47359 0.62779 2.00061 
-0.43797 -0.68262 1.98416 
-0.40541 -0.64573 1.97760 
-0.43723 -0.56634 1.99211 
-0.39190 -0.49556 1.98491 
-0.43117 -0.42046 2.00046 
-0.38286 -0.34806 1.99165 
-0.42015 -0.27580 2.00834 
-0.37150 -0.20133 1.99559 
-0.40729 -0.12737 2.01354 
-0.36720 -0.05150 1.99633 
-0.41179 0.01965 2.00537 
-0.36914 0.09414 1.99455 
-0.41385 0.16023 1.99410 
-0.37058 0.23703 1.99536 
-0.41599 0.30517 1.98683 
-0.37183 0.38173 1.99969 
-0.41362 0.45703 1.98523 
-0.37075 0.53317 2.00544 
-0.40351 0.61336 1.98644 
-0.37902 0.68318 1.99930 
-0.33651 -0.74358 1.98233 
-0.37139 -0.70393 1.98778 
-0.31849 -0.65217 1.98883 
-0.35785 -0.57742 2.00631 
-0.30614 -0.49678 1.99894 
-0.34548 -0.42501 2.01755 
-0.29702 -0.34794 2.00469 
-0.33715 -0.27755 2.02405 
-0.29135 -0.20094 2.00811 
-0.33222 -0.12819 2.02724 
-0.28933 -0.05419 2.00471 
-0.32975 0.02012 2.02492 
-0.28779 0.08988 1.99753 
-0.32962 0.16496 2.02148 
-0.28880 0.23333 1.98921 
-0.33074 0.31043 2.01537 
-0.29088 0.37987 1.98328 
-0.32738 0.46099 2.01036 
-0.28566 0.53415 1.98262 
-0.31792 0.62051 2.00380 
-0.26313 0.69448 1.98519 
-0.33329 0.70811 1.99789 
-0.23156 -0.80086 1.98419 
-0.26668 -0.72921 1.97692 
-0.23171 -0.65456 2.00397 
-0.26927 -0.57257 1.98343 
-0.22367 -0.49959 2.01563 
-0.25832 -0.41975 1.99046 
-0.21423 -0.34877 2.02348 
-0.25066 -0.27185 1.99519 
-0.21024 -0.20009 2.02840 
-0.24644 -0.12437 1.99799 
-0.20751 -0.05238 2.02794 
-0.24428 0.02214 1.99780 
-0.20473 0.09329 2.02645 
-0.24447 0.16528 1.99860 
-0.20523 0.23749 2.02028 
-0.24691 0.30759 1.99910 
-0.20691 0.38211 2.01438 
-0.24975 0.45289 2.00318 
-0.20050 0.53190 2.00691 
-0.24420 0.60905 2.00762 
-0.18492 0.69758 1.99584 
-0.23424 0.76246 1.99687 
-0.11522 -0.82339 1.98374 
-0.18001 -0.73613 1.98989 
-0.14579 -0.64887 1.98320 
-0.18438 -0.57137 1.99843 
-0.13703 -0.49119 1.98969 
-0.17529 -0.42000 2.00293 
-0.12905 -0.34143 1.99338 
-0.17050 -0.27193 2.00476 
-0.12575 -0.19401 1.99720 
-0.16866 -0.12589 2.00392 
-0.12360 -0.04811 1.99837 
-0.16607 0.01867 1.99909 
-0.12142 0.09565 1.99910 
-0.16398 0.16213 1.99319 
-0.12178 0.23693 2.00138 
-0.16513 0.30535 1.98649 
-0.12465 0.37792 2.00408 
-0.16659 0.45129 1.98233 
-0.12430 0.52021 2.00782 
-0.15693 0.60459 1.98206 
-0.10657 0.66816 2.01098 
-0.15789 0.76815 1.99602 
0.05229 -0.76551 2.02699 
-0.09960 -0.74425 2.00872 
-0.06858 -0.61939 2.00846 
-0.10033 -0.57045 2.01582 
-0.05190 -0.48545 2.00259 
-0.09216 -0.41924 2.02106 
-0.04929 -0.34142 2.00204 
-0.08826 -0.26980 2.02566 
-0.04772 -0.19505 2.00088 
-0.08592 -0.12210 2.02685 
-0.04510 -0.05044 1.99794 
-0.08274 0.02349 2.02510 
-0.04176 0.09318 1.99329 
-0.08060 0.16759 2.02366 
-0.04037 0.23630 1.98966 
-0.08219 0.31111 2.01920 
-0.04211 0.37958 1.98494 
-0.08327 0.45601 2.01129 
-0.04089 0.52662 1.98161 
-0.07251 0.59838 1.99882 
-0.02481 0.68363 1.98263 
-0.07696 0.74789 1.98794 
-0.05136 0.79973 1.99115 
-0.01395 -0.59973 2.08693 
-0.08280 -0.76711 2.03870 
-0.01869 -0.68569 2.00243 
0.03605 -0.62734 2.01661 
-0.01238 -0.55241 1.98665 
0.03385 -0.48562 2.01696 
-0.00676 -0.40866 1.99093 
0.03391 -0.33833 2.02293 
-0.00429 -0.26218 1.99550 
0.03550 -0.19053 2.02528 
-0.00285 -0.11644 1.99771 
0.03848 -0.04492 2.02541 
-0.00032 0.02721 1.99906 
0.04177 0.09926 2.02245 
0.00173 0.16930 2.00059 
0.04308 0.24323 2.01995 
0.00088 0.31032 2.00317 
0.04106 0.38757 2.01483 
-0.00020 0.45113 2.00494 
0.04231 0.53181 2.00548 
0.00548 0.59407 2.00802 
0.04736 0.67536 1.99344 
0.02006 0.75598 2.00288 
0.07124 0.80804 1.98848 
0.07483 -0.81522 1.99355 
0.07175 -0.73764 2.00724 
0.11701 -0.64499 1.98089 
0.07812 -0.55948 1.99871 
0.11979 -0.48923 1.98744 
0.07409 -0.41131 1.99783 
0.11813 -0.33650 1.99361 
0.07325 -0.26403 1.99792 
0.11840 -0.18785 1.99659 
0.07566 -0.11865 1.99584 
0.12066 -0.04244 1.99850 
0.07948 0.02511 1.99257 
0.12373 0.10119 1.99989 
0.08270 0.16886 1.98934 
0.12538 0.24449 2.00060 
0.08360 0.31285 1.98625 
0.12539 0.38743 2.00146 
0.08326 0.45686 1.98000 
0.13069 0.52567 2.00200 
0.08758 0.60227 1.97833 
0.13032 0.67098 2.00709 
0.11443 0.75460 1.98370 
0.19363 -0.79618 1.99156 
0.13586 -0.74034 1.99793 
0.20119 -0.64151 1.99750 
0.16256 -0.57245 2.00828 
0.19723 -0.49166 1.99430 
0.15738 -0.41582 2.01818 
0.19418 -0.33886 1.99545 
0.15707 -0.26355 2.02285 
0.19657 -0.19046 1.99336 
0.15975 -0.11580 2.02246 
0.20055 -0.04471 1.99183 
0.16342 0.02983 2.02266 
0.20436 0.10033 1.98913 
0.16639 0.17537 2.01985 
0.20728 0.24657 1.98615 
0.16696 0.32222 2.01529 
0.20863 0.39540 1.98307 
0.16538 0.47163 2.00947 
0.20936 0.54857 1.97995 
0.16836 0.61784 1.99813 
0.19538 0.72127 1.98295 
0.17055 0.80925 1.99345 
0.29677 -0.73519 1.98924 
0.22470 -0.72299 1.97856 
0.28513 -0.65654 1.99774 
0.24652 -0.56841 1.98004 
0.27994 -0.49342 2.01181 
0.24071 -0.41147 1.98885 
0.27903 -0.33791 2.01802 
0.23955 -0.26051 1.99430 
0.28187 -0.18839 2.01949 
0.24184 -0.11401 1.99704 
0.28573 -0.04223 2.02022 
0.24513 0.03028 1.99899 
0.28933 0.10340 2.01754 
0.24801 0.17513 1.99914 
0.29164 0.25028 2.01570 
0.24919 0.32191 1.99811 
0.29196 0.39943 2.01222 
0.24937 0.47149 1.99645 
0.29017 0.55015 2.00846 
0.23830 0.61921 1.99091 
0.27390 0.69391 2.00310 
0.24591 0.76107 1.98750 
0.35108 -0.68885 1.99111 
0.37233 -0.64274 1.98051 
0.32110 -0.56884 1.99272 
0.36442 -0.48734 1.98323 
0.31557 -0.41419 1.99151 
0.36171 -0.33520 1.98946 
0.31779 -0.26388 1.98977 
0.36402 -0.18774 1.99484 
0.32271 -0.11695 1.98922 
0.36771 -0.04329 1.99752 
0.32671 0.02846 1.98750 
0.37099 0.10132 1.99753 
0.33032 0.17494 1.98555 
0.37330 0.24807 1.99698 
0.33270 0.32378 1.98326 
0.37479 0.39718 1.99391 
0.33493 0.47522 1.98276 
0.37492 0.54889 1.98926 
0.33337 0.63221 1.98235 
0.39296 0.69323 1.98845 
0.33984 0.71594 1.98879 
0.41803 -0.69170 1.99042 
0.45075 -0.62793 1.98737 
0.40290 -0.56789 2.00537 
0.44135 -0.48958 1.98746 
0.40226 -0.41425 2.01156 
0.44092 -0.34083 1.98444 
0.40512 -0.26384 2.01370 
0.44558 -0.19267 1.98344 
0.41031 -0.11669 2.01552 
0.45134 -0.04576 1.98295 
0.41382 0.02867 2.01464 
0.45517 0.09964 1.98209 
0.41692 0.17460 2.01303 
0.45741 0.24853 1.98227 
0.41854 0.32352 2.01130 
0.46098 0.39958 1.98227 
0.41972 0.47437 2.00926 
0.46615 0.55461 1.98291 
0.41795 0.62487 2.00373 
0.48824 0.64209 1.98835 
0.52662 -0.62021 1.99070 
0.48699 -0.56203 1.98294 
0.53028 -0.49154 2.00284 
0.48644 -0.41483 1.98536 
0.53049 -0.34490 2.00698 
0.48732 -0.26640 1.99100 
0.53552 -0.19574 2.00692 
0.49121 -0.11967 1.99527 
0.54112 -0.04758 2.00638 
0.49718 0.02550 1.99591 
0.54417 0.09673 2.00727 
0.49756 0.17183 1.99738 
0.54583 0.24575 2.00696 
0.50057 0.32072 1.99473 
0.54914 0.39519 2.00687 
0.50378 0.46708 1.98843 
0.55092 0.53948 2.00425 
0.53688 0.61314 1.98841 
0.55538 -0.55672 1.98535 
0.59574 -0.47038 1.98577 
0.57106 -0.41882 1.98156 
0.61210 -0.34861 1.98742 
0.57055 -0.27508 1.97831 
0.61156 -0.20148 1.99414 
0.57587 -0.12381 1.97705 
0.62182 -0.05331 1.99585 
0.58584 0.02325 1.97733 
0.62579 0.09681 1.99763 
0.58357 0.17054 1.97861 
0.62265 0.24566 1.99814 
0.58713 0.32275 1.97949 
0.63230 0.39312 1.99218 
0.59837 0.46797 1.98243 
0.62686 0.53946 1.98792 
0.65004 -0.41908 1.99132 
0.68896 -0.35761 1.98240 
0.66053 -0.28385 1.99825 
0.69529 -0.20697 1.97511 
0.66862 -0.12490 1.99863 
0.71323 -0.05912 1.97759 
0.66855 0.02042 1.99386 
0.71759 0.09736 1.97853 
0.67549 0.16502 2.00097 
0.70771 0.24552 1.97854 
0.67605 0.32429 2.00158 
0.71279 0.39472 1.98623 
0.67789 0.45917 1.99465 
0.73759 -0.27111 1.98838 
0.75118 -0.15673 1.99046 
0.75018 -0.11316 1.98841 
0.78489 -0.03687 1.98698 
0.73553 0.01827 2.00019 
0.78796 0.07060 1.98737 
0.75732 0.14886 1.99068 
0.76077 0.19179 1.99358 
0.75299 0.30680 1.99316 
0.91870 0.39471 1.97028 
0.00000 0.00000 -1.50000 
CELLS 1023 3068
2 0 5
2 0 6
2 0 7
2 0 20
2 1 2
2 1 7
2 1 8
2 1 9
2 2 9
2 2 10
2 2 11
2 3 11
2 3 12
2 3 13
2 3 24
2 4 5
2 4 16
2 4 17
2 4 18
2 5 6
2 5 18
2 6 18
2 6 19
2 6 20
2 7 8
2 7 20
2 8 9
2 8 20
2 8 21
2 8 22
2 9 10
2 9 22
2 10 11
2 10 22
2 10 23
2 10 24
2 11 24
2 12 13
2 12 24
2 12 25
2 12 26
2 13 14
2 13 26
2 14 26
2 14 27
2 14 28
2 15 16
2 15 31
2 15 32
2 15 33
2 16 17
2 16 33
2 17 18
2 17 33
2 17 34
[...]
CELL_DATA 1023
SCALARS Strain double 
LOOKUP_TABLE default 
2068.54220
1552.89894
2002.41362
1239.95537
1402.51955
2050.30351
715.43865
889.17191
780.11429
827.21713
1066.60762
677.56914
767.65242
1193.40134
933.44518
1756.50566
1204.93367
880.31069
729.19252
786.53878
1398.37671
1109.25994
829.76016
1066.90426
1614.41444
901.76861
733.62061
854.79881
1151.32406
1262.66758
987.94946
946.86208
702.56911
667.55821
928.69755
1021.50149
777.90104
776.56398
827.01370
890.27571
907.81698
878.84001
755.89148
799.24053
799.94067
744.49177
849.36369
740.76996
792.67754
780.11243
722.97065
657.27180
956.96293
906.62179
958.95587
890.53671
869.54519
956.72453
988.07753
790.97476
1042.01525
1021.68726
941.82245
871.73837
905.43079
985.31791
949.96807
801.39565
853.45304
846.39383
773.78720
917.52010
957.53983
878.70436
1053.24815
963.73543
794.88700
894.68804
844.53985
875.09582
875.40513
875.09893
691.01844
835.94539
835.74915
858.56028
1018.34661
800.79598
754.96938
769.31075
1159.27426
789.11953
739.77789
494.80798
631.55811
767.09025
893.08492
882.28847
842.02777
789.63732
837.16000
907.20872
813.88486
876.75438
937.68678
890.00744
1047.88218
968.26904
720.27257
806.81369
680.88551
866.18382
914.47422
676.03742
915.87402
882.46014
650.58042
814.48003
837.35385
942.10868
822.61086
818.92271
887.82069
894.70778
886.12212
940.79654
910.13816
732.87949
894.98816
972.32964
861.03768
901.94111
915.32361
798.10097
911.05052
890.45539
883.76482
898.71628
840.80230
898.20810
764.63293
786.58328
678.81213
782.23314
776.72902
865.73385
871.14945
902.62234
845.03234
914.70183
899.64280
908.13776
935.94800
860.72487
823.90551
933.65173
922.55441
918.16681
897.52514
855.66749
811.62810
914.16754
941.70586
879.21504
813.86268
912.78648
888.22426
915.02759
860.54880
840.69744
837.54212
895.50125
866.60851
918.13247
853.29276
865.76006
874.07930
855.47581
895.51254
893.35699
865.65979
881.50687
804.73246
770.93938
928.80961
844.41661
876.50239
1028.56830
860.21505
895.43960
881.08326
967.41402
832.68668
895.69636
614.08935
728.37303
1095.03697
495.35698
699.00827
866.57746
680.70339
877.77620
879.50162
842.52191
812.96901
860.59055
910.97203
868.15164
904.44357
873.84667
873.91027
829.05531
892.83590
867.23214
899.59930
897.60602
843.89908
840.03869
882.14640
810.22088
887.52544
874.17530
762.17827
843.47449
896.86893
782.69570
856.28055
864.15125
842.39087
796.89101
890.80768
814.11199
853.50786
880.59355
885.89421
822.33777
868.04509
819.91744
857.80047
892.17737
899.58903
872.24224
836.70803
825.18235
913.98504
895.78390
898.11538
885.84821
842.52927
880.08871
1019.97834
750.00156
875.24799
875.35674
520.00219
529.94176
933.00166
1194.72409
713.95569
739.16085
861.71849
935.03163
880.18719
936.37010
959.73650
915.09492
838.39347
855.91237
840.82255
909.58937
918.38337
913.19624
832.04408
827.07005
848.03177
895.05895
905.66405
912.53367
855.08125
826.71031
835.18448
892.47034
883.50281
906.10250
868.71724
824.25919
849.70945
887.96396
857.84047
895.82834
891.22692
804.10222
879.24320
868.63212
858.17089
880.74594
914.87828
816.57281
891.61679
857.39082
861.57423
853.42000
928.86110
859.63178
894.71492
860.37234
885.68322
782.77923
944.95929
910.91096
884.81283
890.87034
938.11062
890.34977
745.99434
724.92479
902.28705
788.99957
746.81103
1128.85313
800.22423
1184.01676
828.44438
866.59629
878.04701
923.94670
974.91048
884.75310
957.71946
917.84713
861.14887
904.95317
835.21098
907.28929
939.02778
897.48317
838.64815
895.87662
836.33575
905.42535
902.74761
887.10293
806.24964
891.64324
853.38476
901.71924
884.10378
870.46746
779.19970
882.95777
864.42131
889.66298
870.70307
861.99461
782.03897
867.22487
882.77534
876.11116
865.43118
849.06390
806.35803
841.60541
899.81763
854.60138
856.52643
858.42053
826.71850
833.88375
916.31570
829.00713
861.48974
930.75826
856.45393
885.75012
907.38497
769.98024
882.15831
1070.98361
909.42208
814.02683
979.84117
849.48898
754.66194
1192.57779
764.63049
1087.60982
1823.34513
843.44972
938.71107
828.85968
877.99226
1089.15125
863.29585
962.33240
934.30443
857.39577
817.98547
910.74802
861.90705
903.05990
915.63817
849.86116
816.22889
903.52123
801.23664
884.24484
900.77165
847.82135
806.86328
891.18197
780.21057
872.77091
899.51642
858.37585
790.45436
876.79435
784.38305
865.66502
888.87997
873.23605
790.56644
858.03635
798.09849
861.86030
861.69691
888.33857
822.51065
835.67387
821.49511
858.52101
848.35476
892.47511
871.67909
804.92029
846.49601
885.68858
846.83004
882.34828
939.66690
761.71254
875.70226
940.99940
860.09009
861.95986
785.02063
878.04753
880.07429
837.21057
1111.23471
1543.56488
1882.19627
1094.97224
1285.66796
999.80088
586.93459
830.97498
1051.48132
900.12975
986.18443
943.05420
795.58500
792.66856
868.51485
897.37133
907.62813
910.71582
847.85510
802.33106
857.42544
912.59898
884.73912
894.45500
862.41475
800.31935
867.47145
904.67133
872.94745
881.14978
871.91620
782.70707
880.51645
895.39262
867.81836
864.21088
891.66156
780.26298
885.89465
878.73328
864.77152
854.26558
905.47531
797.90154
889.52214
857.06791
863.15434
845.04037
906.15730
834.33401
886.42462
852.00248
874.41249
833.58373
801.80175
887.72566
866.11215
859.01747
989.21843
785.43917
828.27045
977.90385
733.38548
874.06135
578.12038
983.97259
844.71732
1228.08804
1872.04579
1205.38830
1096.93889
1707.76780
1603.51195
811.59991
1043.10490
940.17281
1162.14623
901.34289
817.17563
865.96616
914.65212
907.28750
879.24003
908.33931
865.41568
872.18254
810.85310
894.05167
869.00675
890.92444
876.18404
871.02053
775.03294
877.64100
869.39108
876.61865
873.40594
870.25395
784.67525
859.35219
876.09596
864.02405
874.44066
865.64877
799.89728
834.79640
882.92043
849.25467
871.60713
867.93321
816.47647
809.16323
895.55908
844.54766
872.20602
877.49296
843.71335
763.27826
904.97281
852.82089
881.90455
910.91769
871.97327
722.87951
890.25349
885.63349
879.44294
924.95371
875.94983
855.39014
846.82846
840.96667
1041.80268
743.13598
962.14020
687.70288
993.36038
787.32817
1202.32652
966.00466
1063.30202
647.34092
955.13540
985.72747
857.71093
898.28414
823.51702
858.63574
908.37215
957.52488
776.80954
879.21022
868.07026
857.65246
852.54239
917.47420
760.06335
876.15089
884.58894
873.52248
812.37306
888.65001
781.79348
869.05793
884.40327
881.44231
792.37770
864.07649
800.99978
872.87238
882.14792
891.97506
797.34219
846.64963
812.52049
877.67605
874.68226
892.08490
812.97574
825.38226
830.92484
892.69661
867.26412
886.61824
839.03726
784.51546
855.17041
934.53938
863.24082
883.85100
909.31489
645.46647
847.45841
995.41340
857.74444
845.09745
881.80124
658.57425
855.99393
874.42523
788.29501
804.99542
1197.44863
804.65286
1183.69436
924.70551
797.67878
867.94716
851.74336
876.68771
889.18232
885.80621
888.28862
922.30146
844.66145
912.81520
881.82963
883.40270
882.14761
863.90176
877.08906
904.47935
880.62688
872.36712
880.81281
820.95654
891.32458
888.24251
874.03652
858.62499
887.02700
807.32806
897.20060
874.40651
880.44148
849.71197
894.36895
815.37913
895.39925
870.77909
886.57583
841.01648
904.47433
831.55406
893.61799
869.32127
900.68295
839.12418
914.34012
851.82582
882.69719
872.43233
933.15567
849.02626
824.21873
883.01944
856.09710
770.26072
1078.76864
702.32924
919.19046
1109.03085
854.59526
643.89149
895.49385
737.65442
798.66794
713.19654
917.45265
977.23405
736.40638
898.48541
948.13557
879.34571
755.44905
936.12068
879.17091
892.84564
891.07163
878.21501
748.55809
899.64325
885.40621
874.17895
881.13652
872.32633
783.45453
872.97799
886.32062
856.76826
875.74810
871.60200
811.94988
856.78961
888.44622
849.70258
879.16536
873.25383
823.06046
846.98982
888.74624
840.07695
883.40812
883.67506
833.30274
849.97514
897.97953
837.05583
901.24829
895.56506
847.39459
850.72028
905.72319
847.58460
918.71167
893.22499
866.24760
880.34622
908.81783
868.04541
962.32685
835.41253
962.29619
743.08946
880.75224
708.79332
1041.17898
517.66913
669.12206
906.47311
676.04117
800.01627
844.87257
926.86469
826.84241
882.48057
918.81668
769.79102
869.45558
914.07228
888.78096
836.55063
914.50895
794.71890
868.72499
891.12834
904.41249
820.55328
884.14529
823.96898
871.88160
866.16611
913.67132
831.40640
866.52743
848.22265
870.73251
857.50319
911.41925
848.56720
859.47723
854.97516
877.61861
854.93622
907.57765
869.04656
868.34501
852.86607
890.29664
851.79175
902.01926
882.33298
873.27851
869.05934
905.23404
839.69664
887.33344
932.61206
891.12636
915.23474
884.07160
854.14389
841.31235
874.51882
576.65416
742.81491
1080.43890
716.37014
787.54117
762.29158
752.42405
889.62704
871.25844
881.23819
856.49045
901.72291
872.20828
871.96239
880.62593
897.10727
867.81373
923.52072
878.52462
871.75404
852.17688
896.02820
849.57914
929.09277
867.98847
880.73332
833.50597
890.74285
847.79747
927.12200
856.23263
882.46832
853.89918
895.54752
862.23857
924.39836
850.00653
896.30859
820.90717
892.09440
877.86866
917.40270
849.20934
917.10630
836.38495
894.86933
890.19029
915.41813
800.73698
962.71544
868.16191
876.05872
902.88783
953.33144
886.18194
918.75730
738.84521
564.94959
707.22293
698.05370
849.81415
685.37765
899.63313
719.10141
707.85577
859.51057
853.32322
847.06360
909.03226
879.68769
839.03080
853.45752
869.02519
845.35550
886.99668
912.22813
772.18176
876.15867
882.86023
865.94648
858.19963
886.63220
814.82257
885.59971
859.87475
905.14061
888.35943
895.20191
820.90153
883.39623
886.96709
879.44683
883.18306
886.96201
772.31480
914.96561
896.35447
878.14571
868.86774
861.59797
843.68454
911.06008
877.28752
946.79245
765.42372
884.47903
775.68990
1162.03281
952.16362
572.18063
748.06630
814.33792
794.83385
848.45889
800.35295
774.44817
814.81878
856.27970
924.85139
870.69465
958.19953
859.35834
955.06713
861.26916
951.41753
865.02997
854.79434
932.93322
872.13415
860.37788
842.94124
869.67739
875.24136
936.62054
843.57542
867.98675
946.59924
868.06731
963.47894
871.83316
950.08653
844.81760
915.35523
826.57581
820.06196
806.29142
801.93406
770.43260
808.33036
952.68384
731.94444
805.19364
993.17198
873.93819
786.26113
893.31668
778.72724
766.03532
821.21087
887.51963
829.27375
925.62003
662.55717
755.25253
835.49601
924.25236
672.19256
826.83589
838.44537
757.08247
660.65484
894.65543
839.49034
895.90369
878.56994
769.02603
774.84793
808.12664
792.44560
736.74977
968.19612
1151.02727
435.31719
837.25576
750.73283
1074.13793
750.72293
840.04216
430.67428
1151.81376
0.10000
