# vtk DataFile Version 3.0
Point representing Sub_cellular elem model
ASCII

DATASET UNSTRUCTURED_GRID
POINTS 364 float
-0.66627 -0.01982 1.99502 
-0.85015 -0.12866 2.06470 
-0.86809 0.01108 2.06195 
-0.83975 0.20445 2.05937 
-0.79583 -0.31950 1.93254 
-0.83568 -0.14766 1.91928 
-0.76833 -0.14651 1.97192 
-0.65143 -0.20375 2.06891 
-0.77164 -0.10352 2.06127 
-0.82016 -0.03247 2.04829 
-0.80114 0.06864 2.05805 
-0.84290 0.11754 2.05674 
-0.78161 0.25007 2.06968 
-0.81893 0.31507 2.06456 
-0.77575 0.40328 2.07293 
-0.67752 -0.48954 1.94151 
-0.73458 -0.41269 1.93571 
-0.70342 -0.34739 1.96009 
-0.75190 -0.25860 1.94840 
-0.68129 -0.22068 1.99389 
-0.69093 -0.12796 1.98449 
-0.67381 -0.03387 2.03942 
-0.74694 0.01177 2.03740 
-0.70466 0.09454 2.04582 
-0.76438 0.16214 2.04914 
-0.69713 0.24989 2.05503 
-0.74454 0.33139 2.05902 
-0.69835 0.40703 2.06961 
-0.73636 0.47555 2.07126 
-0.68352 0.55751 2.08077 
-0.59407 -0.63580 1.92801 
-0.62988 -0.57541 1.93821 
-0.60610 -0.50821 1.94435 
-0.65656 -0.43228 1.96092 
-0.60982 -0.36088 1.97041 
-0.65812 -0.28510 1.98981 
-0.58007 -0.21874 1.99860 
-0.60414 -0.13300 2.03496 
-0.57380 -0.04054 2.02333 
-0.64953 0.02335 2.04635 
-0.60607 0.10370 2.03841 
-0.66098 0.17078 2.06141 
-0.61370 0.25241 2.05117 
-0.65396 0.33196 2.07341 
-0.61023 0.40988 2.06101 
-0.65721 0.48473 2.08169 
-0.60795 0.55891 2.07091 
-0.51982 -0.65920 1.94246 
-0.55800 -0.58354 1.95019 
-0.51765 -0.51969 1.97102 
-0.56253 -0.43993 1.97708 
-0.51523 -0.37004 1.99926 
-0.54850 -0.29811 2.00494 
-0.49098 -0.22000 2.02793 
-0.52617 -0.13339 2.02680 
-0.48471 -0.04957 2.04832 
-0.54047 0.03556 2.04451 
-0.50889 0.10459 2.05797 
-0.56176 0.18000 2.05445 
-0.51841 0.25838 2.06815 
-0.56315 0.33325 2.06539 
-0.51755 0.41756 2.07951 
-0.56105 0.48675 2.08029 
-0.52013 0.58146 2.08949 
-0.59801 0.63134 2.08630 
-0.53187 0.66915 2.08955 
-0.47552 -0.71996 1.93038 
-0.43000 -0.67164 1.95051 
-0.46951 -0.59582 1.94803 
-0.42338 -0.52595 1.98105 
-0.46730 -0.44490 1.97648 
-0.41302 -0.37646 2.00768 
-0.45237 -0.29692 2.00168 
-0.40297 -0.21830 2.02758 
-0.44448 -0.13432 2.02373 
-0.39906 -0.05282 2.04323 
-0.44661 0.03323 2.03761 
-0.40885 0.10996 2.05566 
-0.46485 0.18533 2.04803 
-0.42102 0.26274 2.06473 
-0.47092 0.33933 2.05846 
-0.42341 0.41887 2.07557 
-0.46949 0.49765 2.06977 
-0.42023 0.57685 2.08856 
-0.46301 0.65202 2.07963 
-0.44119 0.71907 2.09371 
-0.34150 -0.77031 1.93546 
-0.41281 -0.73220 1.94139 
-0.34156 -0.68927 1.94674 
-0.37899 -0.60820 1.96977 
-0.32950 -0.53056 1.97433 
-0.37480 -0.45414 1.99918 
-0.31879 -0.37737 1.99959 
-0.36205 -0.30075 2.02561 
-0.31262 -0.21838 2.02185 
-0.35507 -0.13840 2.04598 
-0.31075 -0.05468 2.03743 
-0.35678 0.02704 2.05952 
-0.31511 0.10906 2.04921 
-0.37153 0.18438 2.06876 
-0.32602 0.26529 2.05880 
-0.37862 0.34149 2.07776 
-0.33058 0.42233 2.06841 
-0.37951 0.50140 2.08823 
-0.32814 0.58028 2.07805 
-0.37495 0.66602 2.09690 
-0.30881 0.72837 2.08686 
-0.37372 0.75151 2.09609 
-0.24005 -0.81265 1.93835 
-0.27336 -0.74842 1.95909 
-0.23803 -0.68034 1.96466 
-0.28805 -0.61062 1.97868 
-0.23809 -0.53814 1.99462 
-0.27736 -0.45847 2.00354 
-0.22814 -0.38291 2.02036 
-0.27004 -0.30061 2.02465 
-0.22224 -0.22302 2.04233 
-0.26594 -0.13909 2.04171 
-0.22063 -0.05995 2.05805 
-0.26707 0.02449 2.05437 
-0.22479 0.10273 2.07030 
-0.27511 0.18533 2.06564 
-0.23457 0.26130 2.07881 
-0.28333 0.34195 2.07285 
-0.24082 0.41950 2.08784 
-0.28647 0.49976 2.08146 
-0.24216 0.57958 2.09702 
-0.27598 0.65527 2.09302 
-0.22515 0.75271 2.10278 
-0.28072 0.79587 2.09995 
-0.13996 -0.81773 1.94837 
-0.18696 -0.75772 1.94537 
-0.13923 -0.68671 1.97510 
-0.19374 -0.61357 1.97019 
-0.14113 -0.54072 1.99719 
-0.18397 -0.46014 1.99417 
-0.13513 -0.38357 2.01821 
-0.17817 -0.30154 2.01652 
-0.13123 -0.22319 2.03670 
-0.17571 -0.14015 2.03510 
-0.13010 -0.06141 2.05110 
-0.17632 0.02274 2.04856 
-0.13298 0.09991 2.06217 
-0.18097 0.18431 2.05945 
-0.14010 0.25796 2.07178 
-0.18829 0.34195 2.06901 
-0.14816 0.41168 2.07815 
-0.19284 0.49861 2.07909 
-0.15540 0.56138 2.08272 
-0.19579 0.64787 2.09105 
-0.15051 0.71135 2.08502 
-0.19338 0.84217 2.09837 
-0.06318 -0.82293 1.94546 
-0.10208 -0.76515 1.96199 
-0.05053 -0.69342 1.96164 
-0.10133 -0.61926 1.98790 
-0.04737 -0.54232 1.98746 
-0.09302 -0.46533 2.01367 
-0.04282 -0.38448 2.00940 
-0.08731 -0.30606 2.03517 
-0.03983 -0.22380 2.02842 
-0.08468 -0.14479 2.05302 
-0.03886 -0.06243 2.04454 
-0.08524 0.01689 2.06677 
-0.04025 0.09861 2.05648 
-0.08961 0.17676 2.07828 
-0.04432 0.25752 2.06745 
-0.09665 0.33321 2.08785 
-0.05003 0.41269 2.07696 
-0.10231 0.48707 2.09611 
-0.05709 0.56424 2.08668 
-0.10558 0.63887 2.10334 
-0.06234 0.71979 2.09844 
-0.12813 0.79485 2.10530 
-0.08574 0.85333 2.10280 
-0.01357 -0.83370 1.94807 
0.04495 -0.83007 1.95279 
-0.00588 -0.77284 1.96081 
0.03698 -0.69673 1.98156 
-0.00251 -0.61943 1.98739 
0.04407 -0.54545 2.00532 
0.00090 -0.46534 2.00972 
0.04856 -0.38740 2.02701 
0.00443 -0.30579 2.02907 
0.05180 -0.22690 2.04555 
0.00664 -0.14486 2.04516 
0.05308 -0.06625 2.06147 
0.00651 0.01569 2.05833 
0.05188 0.09376 2.07360 
0.00343 0.17473 2.06834 
0.04817 0.25205 2.08432 
-0.00246 0.33070 2.07649 
0.04275 0.40845 2.09345 
-0.00943 0.48365 2.08081 
0.03552 0.56424 2.09966 
-0.01631 0.63785 2.08391 
0.01711 0.72684 2.10417 
-0.02931 0.80325 2.09207 
0.03482 0.85306 2.10217 
0.12476 -0.82117 1.95217 
0.08733 -0.76694 1.95568 
0.12816 -0.69062 1.97360 
0.09282 -0.62115 1.97866 
0.13864 -0.54450 1.99857 
0.09385 -0.46546 2.00051 
0.14066 -0.38621 2.01947 
0.09624 -0.30558 2.02000 
0.14335 -0.22583 2.03689 
0.09829 -0.14480 2.03707 
0.14489 -0.06554 2.05170 
0.09874 0.01567 2.05087 
0.14424 0.09395 2.06355 
0.09704 0.17533 2.06250 
0.14108 0.25206 2.07219 
0.09299 0.33342 2.07310 
0.13555 0.40812 2.07859 
0.08585 0.48922 2.08195 
0.12720 0.56243 2.08128 
0.07111 0.63843 2.09396 
0.10525 0.71691 2.08462 
0.07210 0.79755 2.10394 
0.22399 -0.82076 1.95450 
0.17281 -0.76670 1.97189 
0.22809 -0.69196 1.97312 
0.18474 -0.62358 1.99539 
0.23161 -0.54462 1.98909 
0.18553 -0.46683 2.01717 
0.23235 -0.38540 2.00995 
0.18836 -0.30667 2.03640 
0.23502 -0.22483 2.02702 
0.19090 -0.14640 2.05259 
0.23687 -0.06451 2.04300 
0.19159 0.01339 2.06719 
0.23653 0.09552 2.05557 
0.18994 0.17265 2.07875 
0.23370 0.25532 2.06641 
0.18583 0.33120 2.08844 
0.22740 0.41511 2.07651 
0.17856 0.48968 2.09684 
0.21565 0.57605 2.08653 
0.16202 0.64965 2.10271 
0.18684 0.75090 2.09749 
0.14676 0.83099 2.09863 
0.32373 -0.78397 1.96232 
0.25651 -0.75321 1.95681 
0.32864 -0.70646 1.97946 
0.27708 -0.62113 1.98406 
0.32300 -0.54489 2.00549 
0.27713 -0.46471 2.00732 
0.32468 -0.38483 2.02507 
0.27962 -0.30493 2.02680 
0.32807 -0.22464 2.04213 
0.28240 -0.14472 2.04319 
0.33029 -0.06486 2.05774 
0.28334 0.01521 2.05689 
0.32994 0.09502 2.06999 
0.28179 0.17497 2.06723 
0.32660 0.25539 2.08163 
0.27751 0.33471 2.07490 
0.31921 0.41746 2.09120 
0.27024 0.49593 2.08098 
0.30558 0.58312 2.09870 
0.25443 0.66150 2.08516 
0.27174 0.74688 2.10380 
0.23959 0.81164 2.09738 
0.39658 -0.75220 1.96126 
0.41577 -0.68795 1.97279 
0.36650 -0.62267 1.97752 
0.41361 -0.54052 1.99267 
0.36809 -0.46383 1.99711 
0.41508 -0.38292 2.01370 
0.37079 -0.30350 2.01525 
0.41846 -0.22337 2.03294 
0.37404 -0.14307 2.03247 
0.42091 -0.06296 2.04817 
0.37490 0.01738 2.04634 
0.42032 0.09757 2.05962 
0.37263 0.17837 2.05830 
0.41625 0.25845 2.06918 
0.36635 0.34071 2.06892 
0.40904 0.42023 2.07598 
0.35524 0.50503 2.08022 
0.39737 0.58626 2.08236 
0.34074 0.67686 2.08956 
0.40623 0.73428 2.09222 
0.33852 0.76631 2.09466 
0.46005 -0.74116 1.96855 
0.50680 -0.68183 1.96848 
0.45851 -0.61787 1.99181 
0.50452 -0.53855 1.98407 
0.46043 -0.46199 2.01205 
0.50561 -0.38233 2.00113 
0.46401 -0.30258 2.02924 
0.50929 -0.22174 2.01884 
0.46788 -0.14255 2.04575 
0.51231 -0.06063 2.03421 
0.46886 0.01722 2.05942 
0.51111 0.10010 2.04738 
0.46612 0.17751 2.07190 
0.50444 0.26287 2.05984 
0.45869 0.33990 2.08323 
0.49427 0.42704 2.07139 
0.44630 0.50473 2.09287 
0.48887 0.59479 2.08145 
0.43078 0.66637 2.09902 
0.49873 0.68337 2.08855 
0.58111 -0.66082 1.97609 
0.54465 -0.60580 1.98008 
0.59490 -0.53526 1.99709 
0.55120 -0.45985 1.99959 
0.59801 -0.38277 2.01533 
0.55197 -0.30356 2.01981 
0.60269 -0.22184 2.03051 
0.55569 -0.14214 2.03725 
0.60619 -0.06070 2.04468 
0.55776 0.01938 2.05061 
0.60492 0.09862 2.05899 
0.55283 0.18100 2.06272 
0.59774 0.26014 2.07196 
0.54561 0.34190 2.07094 
0.58719 0.42153 2.08413 
0.53653 0.49890 2.07590 
0.57835 0.57361 2.09275 
0.56582 0.64716 2.08520 
0.61967 -0.60270 1.97631 
0.66215 -0.52184 1.98781 
0.64148 -0.45796 1.98892 
0.68455 -0.38101 2.00495 
0.64132 -0.30416 2.00425 
0.68426 -0.22495 2.02516 
0.64686 -0.14007 2.02031 
0.69154 -0.06210 2.04050 
0.64966 0.02119 2.03472 
0.68900 0.10373 2.05477 
0.64264 0.18282 2.04821 
0.67653 0.26690 2.06662 
0.63149 0.34764 2.06023 
0.67359 0.42413 2.07251 
0.62837 0.50161 2.07219 
0.65307 0.57474 2.07919 
0.71785 -0.44650 1.99720 
0.76347 -0.37764 1.99758 
0.73061 -0.30661 2.01540 
0.76960 -0.22607 2.00683 
0.74569 -0.13957 2.03044 
0.78328 -0.05889 2.02433 
0.73066 0.02140 2.04112 
0.78040 0.10461 2.03833 
0.74131 0.18207 2.05914 
0.76096 0.27205 2.05055 
0.72141 0.34898 2.07312 
0.74946 0.42380 2.06723 
0.70777 0.49394 2.07808 
0.80663 -0.29252 2.01010 
0.82849 -0.18265 2.02052 
0.82533 -0.11818 2.02571 
0.85589 -0.03111 2.03022 
0.80604 0.02200 2.04710 
0.85409 0.07868 2.03936 
0.82084 0.16381 2.05020 
0.82121 0.22888 2.05699 
0.79634 0.33743 2.06520 
0.91878 0.39477 2.00000 
0.00000 0.00000 -1.50000 
CELLS 1023 3068
2 0 5
2 0 6
2 0 7
2 0 20
2 1 2
2 1 7
2 1 8
2 1 9
2 2 9
2 2 10
2 2 11
2 3 11
2 3 12
2 3 13
2 3 24
2 4 5
2 4 16
2 4 17
2 4 18
2 5 6
2 5 18
2 6 18
2 6 19
2 6 20
2 7 8
2 7 20
2 8 9
2 8 20
2 8 21
2 8 22
2 9 10
2 9 22
2 10 11
2 10 22
2 10 23
2 10 24
2 11 24
2 12 13
2 12 24
2 12 25
2 12 26
2 13 14
2 13 26
2 14 26
2 14 27
2 14 28
2 15 16
2 15 31
2 15 32
2 15 33
2 16 17
2 16 33
2 17 18
2 17 33
2 17 34
[...]
CELL_DATA 1023
SCALARS Strain double 
LOOKUP_TABLE default 
2252.44170
1642.12502
1986.67548
1113.06839
1408.13048
2123.72658
824.00883
1019.82622
660.86811
882.74186
1094.22894
869.04629
745.11717
1125.81190
869.31177
1767.98516
1114.62545
1002.85822
766.41081
853.92744
1419.43655
1156.07313
1163.46767
804.77513
1566.00234
1200.31071
869.12682
1139.46716
1219.70835
1201.97342
1032.43798
861.34242
642.18498
811.35762
1005.44089
1007.59138
905.18100
750.25573
918.22339
856.43615
899.03117
984.69423
762.52527
795.01193
774.68400
822.23846
957.96966
981.57357
737.75325
638.92828
762.49627
841.95175
1017.37122
968.63533
950.30963
824.51729
920.63577
1057.90092
935.93117
684.89586
1012.45699
1236.95317
1101.89130
1004.27528
861.24696
1211.50022
1014.13833
624.35211
932.22258
984.01448
901.68236
899.41453
991.86820
891.41049
1106.18796
1043.84675
942.71165
871.10186
834.51767
944.34068
891.61009
916.17434
782.81070
871.86009
884.82894
886.44350
978.78671
802.64033
772.96529
761.17116
1130.07030
708.44263
790.73330
671.56128
714.52709
732.22731
925.65500
894.69266
929.90818
872.60278
857.62839
956.20973
918.35983
922.51213
992.07183
941.97477
1027.22351
1113.17742
960.88157
855.56944
937.10427
1047.09946
979.04732
783.00977
1016.20086
1043.13268
928.65106
856.36599
915.91099
1096.57472
895.89886
946.83935
990.41233
895.88782
947.89542
997.94494
917.89384
890.74993
968.82466
962.97802
901.08099
910.78386
906.57944
899.42177
947.20073
931.72143
895.97117
960.88426
864.73616
924.58537
746.09816
849.94016
760.61348
909.39220
810.10447
782.52228
892.66178
916.19408
928.66259
949.06993
902.27954
871.54548
952.60320
793.51185
916.64282
1026.63772
963.59339
995.92771
960.96264
933.92846
898.77761
879.22268
974.77244
958.61431
816.48835
1017.31334
968.87377
857.69083
916.72067
769.94064
940.36256
920.72466
967.66837
1001.08946
924.03888
905.11508
971.70161
871.60410
926.93540
974.37756
942.46390
967.88966
925.88886
816.31316
933.77225
941.25151
938.00601
1034.82057
926.98169
924.36429
883.76757
997.88297
999.11457
912.17248
761.50439
715.53169
1035.00605
692.67891
647.30878
854.28380
635.11685
901.60861
835.45257
899.02272
938.14493
921.96561
940.47695
941.34497
884.80585
926.62882
955.91853
888.40667
868.88053
944.78111
929.07825
962.97060
934.05833
936.53574
919.64477
904.32221
948.52402
952.17212
921.27612
983.81356
961.65956
884.18314
917.12620
873.01467
925.70903
941.01420
978.90906
938.65519
841.74474
904.09226
954.95610
915.25546
926.68517
951.19987
902.90994
941.10742
942.24020
913.50636
893.32784
930.74842
942.41501
950.49225
918.38726
868.54276
856.36776
926.52347
1002.56391
718.03784
907.24379
848.26839
748.00776
809.74099
817.22640
1098.67569
752.71070
832.58785
921.14835
910.20126
1053.48713
1002.45426
920.90758
913.08187
921.47397
901.66725
938.49439
935.36547
949.30774
975.30310
916.56423
910.58964
930.65989
942.13552
960.34638
919.15113
936.02760
925.45950
926.93318
940.30694
950.20908
891.33095
962.51956
955.62927
924.92756
918.84663
924.79182
897.90653
960.17623
972.98330
928.65729
875.68936
932.66469
963.71056
944.06512
949.44006
936.00417
887.64314
943.99518
953.16176
949.70463
932.44548
917.80865
899.64501
945.80245
931.97801
993.90477
906.24324
879.51578
924.59462
913.44755
854.03613
995.28648
694.26041
802.73327
884.70915
741.79420
1030.07782
751.62058
1006.21228
766.11622
768.09003
878.67998
868.42062
945.97187
994.51556
802.08585
893.64899
946.35621
891.71904
907.44687
969.22987
948.38587
916.41257
937.75295
923.48431
926.41087
929.32900
954.61035
927.40764
921.35990
945.27366
935.67657
910.80252
952.08281
925.44777
903.73521
963.34045
946.44055
907.10225
941.93940
902.53276
908.53759
967.33261
959.16498
921.08973
931.41226
870.19685
942.58109
943.31921
956.90725
946.89491
933.98616
895.89662
950.13954
924.58076
954.35107
933.95472
928.43408
925.06181
935.67778
828.99129
963.84190
896.92848
826.60400
1102.34677
804.49601
703.25803
1093.99922
870.63861
949.40466
1057.08691
987.64358
761.88982
769.13102
661.12850
904.79863
867.16204
912.50366
876.82386
898.70113
783.22494
937.27540
941.62778
912.16322
884.31516
941.71998
908.42985
938.44166
930.63972
925.56183
919.75618
926.38069
925.44928
934.40688
927.71045
941.14691
937.06975
916.73816
925.25380
922.91788
927.95900
959.47674
948.64635
913.78168
914.89759
894.44371
929.71094
970.27435
957.79837
928.15964
896.01966
850.20538
934.83904
967.78809
957.39482
957.76338
882.65607
808.68435
938.63919
976.45381
942.66155
980.45589
899.46163
730.76797
927.32752
957.23228
921.98125
983.28187
943.01686
781.07324
913.93545
871.23614
894.85419
886.99074
808.03004
1082.16661
714.88061
507.31867
775.36166
882.36802
964.11537
935.55344
910.11021
897.04554
917.85333
938.72856
987.19053
931.63108
891.13046
931.24905
934.51536
951.63160
938.98260
936.72762
918.15793
930.02611
937.69349
951.10872
918.42091
940.26849
930.73855
931.69175
930.20017
945.23345
915.58760
944.33129
940.60963
934.66409
912.83851
937.55417
920.42187
948.64786
951.15560
937.28043
884.60660
931.24625
934.89748
941.48829
954.80302
940.75056
846.91968
926.86654
948.08660
928.16833
946.86787
942.25403
817.43882
898.36322
940.97316
904.48755
937.11392
934.15797
841.04199
917.81196
912.66222
999.50261
949.97758
798.65271
898.82900
721.74155
999.59309
761.09933
1204.59342
587.19121
625.55439
768.62160
802.06065
759.84728
896.79004
934.35228
868.97056
900.93051
916.30204
939.12723
891.50261
956.46381
910.09878
938.05998
947.12442
942.32041
928.81568
933.12513
926.96583
939.64668
923.11459
948.52282
933.77447
921.53213
935.46339
938.03112
918.64590
946.32805
926.48779
919.08027
942.01566
937.58174
922.31397
942.83597
914.79620
924.36992
944.03982
937.69306
928.10364
938.01194
906.45012
936.91034
937.62117
934.39733
935.98245
934.74769
914.18427
954.49394
922.98763
924.62642
938.86349
921.75709
940.84720
953.50562
912.97624
919.57011
934.15817
823.89948
970.89188
878.96972
901.15289
1039.97800
907.24750
894.77463
817.28459
1021.59459
667.92119
1140.44310
658.86793
991.62767
751.65488
882.91518
869.08826
780.08654
881.32380
998.46073
902.97146
913.91881
933.62734
907.67809
914.85201
933.52794
925.23023
938.71660
930.91556
919.60632
921.88615
920.92162
941.86975
940.49178
934.78303
926.12806
924.27988
921.10384
938.01123
929.97438
938.09805
933.07610
929.33580
922.93890
929.11002
913.26410
941.96048
939.92395
934.09844
925.44047
921.68858
888.93118
942.50269
944.09038
933.71361
927.63822
922.60700
860.46829
940.21430
950.77688
923.16224
920.40337
938.95863
839.79202
938.00298
952.03728
903.07163
895.49366
962.30238
859.85878
919.11074
892.02518
897.52863
892.24907
1239.32172
818.73505
763.44607
1064.95106
749.02461
928.73909
860.09684
838.76684
693.59515
1016.86014
867.16589
919.33832
929.66133
945.78183
890.40169
927.53621
936.61736
941.01366
920.53485
938.89042
910.11727
934.57284
947.37983
945.71975
916.73727
934.52340
915.73831
941.65717
943.61723
942.91470
918.95723
931.98411
921.31453
944.83264
932.17997
942.44201
922.50952
929.37798
928.75589
944.23252
920.76163
942.52872
924.99380
922.82506
935.52124
940.36931
909.73292
943.01361
926.44388
913.22925
946.54019
929.10485
914.75694
944.61732
931.50059
923.97538
970.09978
909.28054
937.51489
1042.75306
947.07392
894.73147
1126.43872
851.21899
803.47493
947.34992
740.34598
794.35695
793.80373
887.88630
997.10195
838.01969
892.20766
918.68118
914.38738
895.71740
922.95650
933.00856
915.20865
930.39012
945.34039
914.37920
916.53392
942.80755
910.30746
939.11797
949.19309
918.10022
919.52410
935.22579
907.59287
940.28025
941.52994
921.84960
927.20304
930.10770
910.42775
941.53196
932.44089
920.89759
932.69693
926.78645
909.06996
942.71120
930.85177
912.42948
934.19555
926.19584
904.61036
948.77820
939.85757
891.35247
929.55026
926.84347
910.53457
952.19230
956.34374
853.88119
944.73835
942.71952
931.87384
1004.35161
889.88702
876.73250
724.86324
992.27839
700.47869
1087.54585
679.39978
647.35226
818.21212
692.53307
912.35247
841.65244
958.04686
931.39116
891.91779
893.40319
912.29791
933.56413
949.23135
934.55913
908.51001
910.73545
912.99620
952.44688
947.92961
941.74411
916.67464
913.46938
918.41903
954.97994
940.34758
946.74749
925.04192
923.48975
923.89268
939.99938
930.08447
947.68613
937.28810
937.72389
915.41659
928.47788
917.38210
943.69564
961.14679
950.06991
886.95747
928.09648
904.26615
933.45709
1004.16926
946.03917
855.24776
937.84594
914.39032
918.37177
1069.89412
955.68880
917.98178
882.74934
870.39230
895.23411
910.48040
748.50192
724.28846
1055.44239
754.27893
833.66757
774.99185
856.26858
919.22624
876.64269
925.67188
783.15952
912.75813
927.11106
921.30417
915.41843
941.33615
898.42807
933.93327
931.91253
931.38065
883.64833
932.26843
921.81427
940.25417
938.59383
938.08205
881.19337
925.52400
922.80540
943.54700
933.67179
936.96813
892.56684
927.38008
931.80404
944.35870
922.11702
942.40409
871.67070
924.95684
950.48191
940.24751
896.95958
947.64609
877.10399
936.99040
993.22314
938.43500
833.83715
1001.69337
918.96071
937.41064
893.09338
1071.28137
925.39237
930.53855
707.23657
762.11057
660.26308
696.54086
881.61089
750.77501
870.97236
746.86700
690.95843
905.20223
914.41784
908.33701
916.34856
906.74441
870.71789
903.31503
966.71820
905.96821
926.77179
945.47226
817.00967
933.96282
960.07556
926.51341
936.76888
923.50658
853.70708
931.46177
924.88905
931.83114
974.33718
925.65729
842.44945
927.87063
913.69521
908.89799
968.64918
924.15214
791.52430
944.09181
906.95335
866.31116
927.40581
893.02152
871.24962
907.34247
871.62463
918.50282
748.90184
899.48594
758.52547
1134.49818
919.55336
670.49887
940.61294
895.22211
775.62677
880.77586
737.79313
792.39959
880.30529
923.97836
899.15181
927.79505
943.01529
871.99272
1052.09089
920.06631
992.48808
933.04058
949.54001
931.11826
921.13045
935.16534
811.52135
918.06817
931.74631
927.70331
941.99520
924.05857
991.79040
925.76555
1068.96450
860.01729
936.74639
880.68587
907.50217
896.16460
889.71662
759.53425
778.29763
774.07892
798.89038
974.76716
825.06476
801.71712
961.53658
897.95507
773.96681
926.90656
760.40364
743.28754
891.20649
937.62682
825.02394
973.62118
725.95258
778.58830
869.61702
968.82719
755.22646
891.25574
868.48466
780.28759
725.72724
923.98168
819.92921
925.27975
892.94528
743.01758
756.68504
800.25220
761.31989
822.17553
981.93590
1124.05743
646.58170
922.82501
746.66096
1100.90845
746.14045
919.30236
653.20650
1115.65665
0.10000
