# vtk DataFile Version 3.0
Point representing Sub_cellular elem model
ASCII

DATASET UNSTRUCTURED_GRID
POINTS 364 float
-0.44610 -0.00031 2.02423 
-0.63247 -0.18779 2.02648 
-0.68832 -0.04665 2.01207 
-0.67788 0.10502 2.01701 
-0.62379 -0.26035 2.00011 
-0.63736 -0.08958 2.00680 
-0.57008 -0.11062 1.98675 
-0.42773 -0.22351 2.04323 
-0.57480 -0.14180 1.99607 
-0.62424 -0.08622 2.03049 
-0.62046 0.00670 2.00258 
-0.65914 0.06171 2.00955 
-0.62574 0.15913 1.99272 
-0.66657 0.22447 2.01047 
-0.63192 0.29567 1.99680 
-0.50559 -0.45789 2.02057 
-0.56179 -0.36702 2.00795 
-0.54226 -0.30557 2.01986 
-0.57182 -0.21577 2.01048 
-0.49584 -0.18375 2.00395 
-0.49244 -0.11230 2.07232 
-0.49475 -0.06627 2.00252 
-0.55836 -0.02953 2.00600 
-0.53991 0.04163 2.02259 
-0.58791 0.09439 2.00939 
-0.54618 0.17199 2.02462 
-0.58429 0.23519 2.00969 
-0.55259 0.30096 2.01227 
-0.58425 0.34876 2.00623 
-0.54118 0.44052 2.00010 
-0.37965 -0.57227 2.01808 
-0.44473 -0.51224 2.01390 
-0.42469 -0.45186 2.01808 
-0.48918 -0.38458 2.00418 
-0.44666 -0.31631 2.01522 
-0.48740 -0.24594 1.99631 
-0.41770 -0.18872 2.01581 
-0.44091 -0.12136 1.99544 
-0.41708 -0.05119 1.99743 
-0.48432 -0.00803 1.97652 
-0.44886 0.05755 2.00474 
-0.49929 0.10909 1.99005 
-0.45817 0.17474 2.01398 
-0.50614 0.23586 1.98539 
-0.46580 0.29890 2.01766 
-0.51619 0.36906 1.98850 
-0.46845 0.42749 2.02216 
-0.29046 -0.57598 2.00658 
-0.36401 -0.52785 2.02529 
-0.34053 -0.45545 1.99696 
-0.39902 -0.38806 2.02762 
-0.36564 -0.31711 1.99590 
-0.39997 -0.24887 2.02667 
-0.35758 -0.18648 1.98256 
-0.38042 -0.11375 2.01128 
-0.35374 -0.05079 1.96246 
-0.40173 0.00063 2.00779 
-0.36997 0.06450 1.99687 
-0.41859 0.11948 2.02735 
-0.38103 0.18056 1.99869 
-0.42488 0.24168 2.02128 
-0.38930 0.30559 1.98977 
-0.42761 0.36890 2.01194 
-0.39603 0.44347 1.99481 
-0.45371 0.49686 2.00253 
-0.41087 0.51936 2.00680 
-0.21421 -0.62705 2.00731 
-0.19664 -0.58124 2.01093 
-0.27055 -0.51629 2.00852 
-0.25018 -0.44574 2.01261 
-0.31592 -0.37951 2.01344 
-0.28277 -0.30622 2.01743 
-0.32447 -0.24659 2.00812 
-0.28557 -0.17010 2.01892 
-0.31721 -0.11202 1.98793 
-0.29151 -0.04558 2.02432 
-0.32446 0.01176 1.99260 
-0.29650 0.07161 2.02876 
-0.33738 0.12509 2.00525 
-0.30325 0.18346 2.01456 
-0.34291 0.24088 2.00621 
-0.31160 0.29926 2.01590 
-0.34931 0.36385 2.02537 
-0.31601 0.43139 2.01625 
-0.34542 0.49451 2.02563 
-0.33187 0.55883 1.99694 
0.00158 -0.61357 1.98756 
-0.11471 -0.60842 1.99473 
-0.08104 -0.55087 1.99023 
-0.18187 -0.50744 1.98059 
-0.18217 -0.43011 2.00314 
-0.24023 -0.36861 1.97541 
-0.21528 -0.29106 1.99380 
-0.25650 -0.23368 1.98541 
-0.22577 -0.16114 1.98407 
-0.25653 -0.10258 1.97329 
-0.21990 -0.04124 1.99924 
-0.25304 0.01530 1.97910 
-0.22420 0.07073 2.00497 
-0.26750 0.12083 1.96608 
-0.23658 0.18245 1.98916 
-0.27803 0.24330 1.95798 
-0.24237 0.29935 1.99997 
-0.28004 0.37111 1.99735 
-0.24411 0.42759 2.01403 
-0.27708 0.51539 2.00314 
-0.23119 0.55907 1.98494 
-0.28185 0.59686 2.00822 
0.13255 -0.52450 1.97467 
0.04120 -0.53810 1.99259 
0.00272 -0.48034 1.96046 
-0.09709 -0.47321 1.99223 
-0.10979 -0.39770 1.98450 
-0.16822 -0.34119 2.00930 
-0.14333 -0.27047 1.96791 
-0.18586 -0.21437 1.99889 
-0.16531 -0.14706 1.95775 
-0.18780 -0.10294 2.02500 
-0.15797 -0.03597 2.00420 
-0.19691 0.01572 2.04504 
-0.16080 0.07321 2.01907 
-0.20324 0.12945 2.02142 
-0.16365 0.17951 1.98605 
-0.20668 0.23640 2.00046 
-0.17028 0.29778 1.98551 
-0.20925 0.35604 2.02041 
-0.17238 0.42633 1.99104 
-0.20666 0.49121 2.03023 
-0.16775 0.57591 1.99217 
-0.20888 0.62050 1.99709 
0.18914 -0.34845 1.96514 
0.10718 -0.43978 1.96376 
0.05007 -0.39511 1.96774 
-0.04988 -0.43726 1.99449 
-0.07430 -0.37634 2.03034 
-0.11681 -0.31890 2.01020 
-0.10238 -0.24551 2.03695 
-0.13204 -0.19824 1.98116 
-0.09588 -0.13902 1.99033 
-0.12765 -0.09063 1.97778 
-0.09113 -0.03777 2.00765 
-0.12687 0.01665 2.01775 
-0.09920 0.07766 2.04685 
-0.12989 0.13024 2.01124 
-0.09731 0.18795 2.01304 
-0.13516 0.23709 1.98625 
-0.09923 0.28610 2.01616 
-0.13898 0.35395 1.99838 
-0.09856 0.40401 2.02963 
-0.13629 0.47255 1.99689 
-0.10095 0.54539 2.01293 
-0.15488 0.66768 1.98872 
0.13790 -0.19341 1.95707 
0.12204 -0.27896 1.95006 
0.03848 -0.29518 1.97035 
0.00064 -0.36297 1.97841 
-0.02543 -0.33228 2.08510 
-0.05501 -0.29960 2.04564 
-0.03772 -0.21956 2.04527 
-0.06277 -0.18932 2.00216 
-0.03291 -0.13170 1.96355 
-0.06658 -0.08032 1.94569 
-0.03021 -0.02564 1.97141 
-0.06347 0.02898 2.00198 
-0.02512 0.07647 2.02155 
-0.06182 0.12672 2.01161 
-0.03440 0.17912 1.98438 
-0.06722 0.23668 1.95514 
-0.03461 0.29081 1.98218 
-0.07012 0.34961 1.96667 
-0.03563 0.40708 1.99408 
-0.07500 0.47364 1.98100 
-0.03059 0.54544 1.98690 
-0.10000 0.62194 1.97422 
-0.06647 0.67496 1.98307 
-0.00075 -0.13776 1.96238 
-0.13548 -0.19661 1.98327 
-0.00573 -0.18362 1.96931 
-0.03726 -0.26273 1.97823 
-0.00629 -0.24250 2.12351 
0.01464 -0.33111 2.09508 
0.00638 -0.26667 2.08149 
0.02736 -0.24222 2.02956 
0.00430 -0.17089 2.03064 
0.02979 -0.14430 1.95434 
0.00201 -0.08210 1.97317 
0.03781 -0.01779 1.96088 
0.00259 0.01246 2.02897 
0.03072 0.06963 2.01312 
0.00479 0.13531 2.03201 
0.03077 0.17117 1.96180 
-0.00252 0.23205 2.00526 
0.03265 0.28986 1.98941 
-0.00324 0.34604 2.01922 
0.03224 0.40974 1.98669 
-0.00261 0.47343 2.00735 
0.02579 0.55029 1.97738 
-0.01279 0.62669 2.00254 
0.05274 0.66775 1.98576 
-0.20773 -0.34300 2.01114 
-0.13677 -0.28337 2.00052 
-0.06653 -0.39420 2.00769 
-0.01161 -0.37104 2.03032 
0.05542 -0.38262 2.04247 
0.07445 -0.29383 2.07272 
0.10019 -0.24876 2.03788 
0.06133 -0.19297 1.98958 
0.09565 -0.14154 1.98920 
0.06540 -0.08448 1.95513 
0.09178 -0.05086 2.01536 
0.07402 0.02603 2.00896 
0.09892 0.07331 2.05377 
0.06840 0.11852 1.99746 
0.09965 0.18632 1.99965 
0.06204 0.23312 1.96822 
0.10262 0.28596 1.99799 
0.06310 0.34698 1.99727 
0.10159 0.40617 2.03429 
0.06429 0.46854 2.00329 
0.09134 0.54318 2.02993 
0.07270 0.61360 1.98825 
-0.15898 -0.52377 2.02006 
-0.13228 -0.44202 2.00524 
-0.01835 -0.49599 2.01026 
0.02043 -0.43052 1.99773 
0.09743 -0.42096 2.02135 
0.09394 -0.32418 2.00813 
0.15204 -0.26798 1.99336 
0.11470 -0.21164 1.96516 
0.15820 -0.15699 1.97651 
0.13714 -0.08616 1.95918 
0.16378 -0.03821 1.99701 
0.12702 0.01076 2.01470 
0.16556 0.06547 2.01294 
0.13044 0.11719 1.99174 
0.16458 0.17475 1.96543 
0.12783 0.23232 1.94151 
0.16370 0.29175 1.97238 
0.12931 0.35751 1.96797 
0.16704 0.41674 2.00928 
0.12911 0.47865 1.99506 
0.15755 0.56488 2.00414 
0.13993 0.63571 1.99141 
-0.02254 -0.61655 2.01687 
-0.06123 -0.53489 2.01677 
0.05194 -0.57088 1.99989 
0.08299 -0.48767 2.01297 
0.15638 -0.44101 1.98431 
0.16195 -0.35408 2.00815 
0.20886 -0.29493 1.95880 
0.18474 -0.22354 1.99475 
0.22393 -0.16303 1.98076 
0.18795 -0.10535 2.02318 
0.22488 -0.04569 1.97994 
0.20056 0.00676 2.04273 
0.22696 0.06417 1.99616 
0.20163 0.12715 2.00152 
0.23388 0.17278 1.94799 
0.19394 0.23323 1.98977 
0.23562 0.29784 1.95631 
0.20139 0.35177 2.01623 
0.23336 0.42509 1.99483 
0.20492 0.49659 2.02431 
0.21964 0.57143 1.98124 
0.18752 0.63842 1.99816 
0.10471 -0.61951 2.01543 
0.16851 -0.58059 2.01289 
0.16308 -0.51684 2.00742 
0.23802 -0.44765 2.01462 
0.22135 -0.37121 1.99336 
0.27712 -0.30611 2.00920 
0.25183 -0.23525 1.98668 
0.29143 -0.17940 2.01026 
0.25932 -0.10799 2.00198 
0.29672 -0.05182 2.02601 
0.26063 0.00700 1.99550 
0.30084 0.06375 2.00234 
0.26485 0.11751 1.97818 
0.29570 0.17521 2.00828 
0.26406 0.23429 1.97957 
0.30164 0.29853 2.01283 
0.26689 0.36017 1.99955 
0.31061 0.43867 2.01261 
0.26789 0.50416 2.00384 
0.31721 0.58017 1.98666 
0.28435 0.59900 1.99447 
0.19225 -0.64108 2.01091 
0.26933 -0.59447 2.01579 
0.24780 -0.53016 1.98967 
0.31474 -0.46047 2.00603 
0.29451 -0.38696 1.97967 
0.34536 -0.31805 1.99699 
0.32425 -0.24445 1.96710 
0.36336 -0.18236 1.99836 
0.32751 -0.11685 1.99352 
0.36587 -0.05977 1.99692 
0.32636 -0.00279 1.96132 
0.36584 0.06014 1.98312 
0.33260 0.12135 1.95452 
0.37184 0.17673 1.99551 
0.33659 0.23590 1.98873 
0.37165 0.30205 2.00340 
0.33780 0.36657 1.97582 
0.37656 0.44161 1.99470 
0.33761 0.51321 1.97467 
0.40826 0.53016 1.98154 
0.35994 -0.59545 2.01086 
0.33617 -0.53376 2.01694 
0.40017 -0.47411 1.99322 
0.37318 -0.39534 2.01558 
0.42215 -0.33380 1.98053 
0.39840 -0.25587 2.01102 
0.44171 -0.19202 1.97356 
0.40241 -0.12675 2.01273 
0.44036 -0.06658 1.97235 
0.40336 0.00003 2.00253 
0.44480 0.05992 1.97067 
0.40419 0.11896 2.00692 
0.45138 0.18064 1.98099 
0.41164 0.24353 2.01399 
0.44794 0.31215 1.97115 
0.41582 0.38090 2.00641 
0.45365 0.44844 1.96726 
0.43599 0.51745 1.98404 
0.40529 -0.53376 2.01436 
0.47567 -0.46803 2.01201 
0.45111 -0.40266 2.00604 
0.50194 -0.34262 2.00973 
0.46265 -0.26465 2.00346 
0.51563 -0.19807 1.99865 
0.48150 -0.12841 1.99978 
0.51870 -0.07448 2.00457 
0.48059 -0.00473 1.99724 
0.52206 0.06701 2.00366 
0.48890 0.11686 2.00130 
0.52318 0.18443 1.99993 
0.48086 0.24883 2.00880 
0.52726 0.32660 1.99830 
0.49331 0.37890 1.99304 
0.52964 0.45639 1.98359 
0.52779 -0.41776 1.99871 
0.56661 -0.34937 2.00461 
0.54846 -0.28199 1.98120 
0.57835 -0.21051 2.01156 
0.57883 -0.13622 1.97912 
0.59605 -0.07265 1.99490 
0.56021 -0.00524 1.97042 
0.60174 0.05941 1.99334 
0.58666 0.12262 1.97778 
0.59403 0.19446 2.01231 
0.56739 0.26347 1.97789 
0.59174 0.33155 1.99310 
0.57250 0.39402 1.97584 
0.62267 -0.27051 1.99795 
0.63207 -0.17162 1.99186 
0.66109 -0.12413 2.00072 
0.68743 -0.06204 1.98641 
0.63626 -0.00665 2.00380 
0.69474 0.04172 1.98341 
0.67066 0.10658 1.99596 
0.64199 0.15189 1.98771 
0.63972 0.25046 1.99082 
0.91878 0.39477 2.00000 
0.00000 0.00000 -1.50000 
CELLS 1023 3068
2 0 5
2 0 6
2 0 7
2 0 20
2 1 2
2 1 7
2 1 8
2 1 9
2 2 9
2 2 10
2 2 11
2 3 11
2 3 12
2 3 13
2 3 24
2 4 5
2 4 16
2 4 17
2 4 18
2 5 6
2 5 18
2 6 18
2 6 19
2 6 20
2 7 8
2 7 20
2 8 9
2 8 20
2 8 21
2 8 22
2 9 10
2 9 22
2 10 11
2 10 22
2 10 23
2 10 24
2 11 24
2 12 13
2 12 24
2 12 25
2 12 26
2 13 14
2 13 26
2 14 26
2 14 27
2 14 28
2 15 16
2 15 31
2 15 32
2 15 33
2 16 17
2 16 33
2 17 18
2 17 33
[...]
CELL_DATA 1023
SCALARS Strain double 
LOOKUP_TABLE default 
2116.87077
1700.30603
2246.62359
1302.88916
1523.71956
2084.07102
796.91776
1018.79283
774.38529
867.45932
1121.49342
476.74023
788.69162
1200.61354
908.11980
1713.34029
1235.30851
952.02094
691.59239
731.84624
1421.35907
1077.10220
1055.24870
1154.58246
1746.24177
1318.17201
818.64920
1159.45099
1101.41598
1137.97981
969.95948
901.92249
675.12501
718.71857
899.46687
936.79382
782.65279
789.72353
767.05038
865.73539
881.69795
802.53138
828.79165
779.51414
809.07131
718.70973
1074.88235
817.67476
810.58759
767.83979
654.70280
746.98970
949.07102
963.72966
962.12484
842.85917
826.06272
906.66093
988.49356
631.25548
790.95403
834.62323
835.37455
928.91128
734.38184
772.57075
791.92228
645.26152
752.63217
824.46667
724.40128
875.28320
940.41172
851.01317
893.18740
917.92032
752.04833
856.27333
885.90960
848.76368
729.58068
817.45825
575.49162
842.70831
868.79608
806.89988
1014.59334
731.03200
764.85585
770.09177
1039.65689
885.31160
899.13664
475.44368
636.60694
829.00146
941.22117
974.15673
867.46816
693.23641
810.82475
931.27879
833.81428
869.18692
832.03680
827.22736
921.64507
924.94250
740.03437
635.45501
686.32272
837.46055
740.29116
628.91435
824.94338
737.21360
722.43493
549.25169
796.17988
886.34940
734.92024
738.62208
794.85898
724.43675
809.74150
894.10211
826.85378
691.81590
787.61239
750.13622
814.03266
889.20903
910.70493
703.39816
815.94721
798.47997
825.18991
915.33193
720.42351
789.44084
734.85274
897.72031
916.68959
939.63804
628.57994
811.20270
955.52343
942.49884
933.42105
921.05658
814.12024
844.87224
846.32986
822.49409
815.87924
862.05166
824.64601
872.81175
776.77428
813.54059
731.32842
822.19375
847.69295
839.16338
673.01758
835.71499
756.11386
878.04472
752.53491
720.68698
794.30317
793.69476
696.86436
803.05400
692.10179
771.29083
842.51271
784.38969
707.91245
793.28609
716.46356
795.42395
832.48883
771.53943
811.99512
821.21394
790.30331
826.70367
795.00613
788.66991
781.47805
971.45047
836.20437
781.03693
484.75432
724.02308
887.58076
490.97697
1019.08493
983.29310
877.23855
1212.06675
810.50198
734.41573
932.90276
932.23520
973.57157
703.18606
861.10371
804.33819
853.04275
732.59159
863.14957
729.93767
834.28964
863.88715
727.18101
729.45029
774.27339
696.87511
864.14889
798.93288
630.36867
732.48284
840.24485
758.91305
849.28190
752.09975
726.71701
711.99791
866.48114
760.14062
847.00956
681.51007
801.16222
701.74621
867.98785
712.52006
860.26060
668.48036
807.78507
752.95844
871.48021
709.38017
805.39642
757.53600
749.77967
701.55636
726.04016
719.32802
934.06583
716.20297
748.13048
700.94246
637.45866
1165.31581
1036.48799
1588.02837
852.86841
667.27398
1101.13898
1228.27800
1133.74138
792.24451
804.55671
920.73822
889.03563
959.06046
813.67941
901.14166
834.08466
840.77304
710.45944
703.86800
790.92252
822.02725
786.95214
743.62837
669.15619
680.59531
673.28694
805.50565
759.08670
859.11259
684.61960
740.68940
622.54697
765.20521
675.27349
864.98342
766.97648
732.23754
648.94441
643.88229
726.01996
851.43315
798.58760
703.30408
729.55348
626.06132
784.82391
832.20459
809.88372
722.65133
734.45274
686.64425
688.85867
758.61050
943.19289
797.46780
752.39980
754.88521
658.17115
816.60525
791.33688
672.50309
850.90845
659.34044
663.76158
774.05600
939.71971
1850.67013
890.08533
763.74827
1217.63659
1048.84814
1120.08718
976.68673
759.35337
768.68408
592.78386
848.80440
723.86742
616.80099
830.73496
855.41098
559.40455
768.15367
694.45743
839.56140
741.98989
814.20378
588.18996
834.13267
652.85610
770.12890
706.33054
761.09481
773.51746
764.24637
677.58447
668.53373
625.06412
725.83456
750.76792
703.99129
658.70388
676.21169
652.40672
728.57793
739.54240
726.73051
647.20912
720.22148
641.50465
728.15168
728.23630
781.99843
700.13444
781.51462
654.77408
845.30719
735.74864
830.98252
799.52534
861.35611
588.37519
1005.76287
799.77365
607.64813
1080.40828
762.11150
926.38148
837.54651
720.95533
1226.15349
1633.89514
976.73326
725.13969
1619.88206
1116.26428
1376.85066
1005.42172
598.20521
746.85535
911.77763
741.44349
920.51083
855.01881
804.85641
793.40643
737.05153
788.01710
723.27004
700.65613
769.48176
698.85165
728.29061
591.33139
612.70289
687.23018
792.52990
707.55618
696.53525
657.83157
789.64031
718.12130
723.80767
729.40845
663.83739
704.23499
751.30692
781.88778
709.29432
661.99406
680.58231
674.75574
706.84306
695.93141
813.45621
676.33329
746.27994
805.14654
846.95168
730.54713
855.11412
714.25763
758.33241
847.12643
878.28999
722.39263
880.38546
824.32677
632.20371
826.11220
749.23852
856.91952
727.98183
887.92461
871.86523
1493.91983
1443.76440
874.03769
1604.69903
779.51833
1198.95702
826.68918
1679.35744
1139.40391
1886.16252
590.67532
994.09448
412.12430
729.03529
817.92833
782.53667
582.13038
739.06126
705.82291
658.43842
754.11249
750.59753
638.81241
860.48258
645.03200
613.23489
704.20734
738.14118
707.84512
649.23563
691.79108
763.27436
639.97775
731.46523
629.08494
700.46950
567.83848
667.26778
650.13571
700.93008
723.26907
755.53218
693.28058
651.20289
686.33084
818.77617
703.18478
707.22016
675.57327
734.31477
723.11260
850.23249
783.27732
734.34791
682.25294
751.90032
845.25574
769.39193
1039.76474
798.11059
572.89739
845.40505
632.51989
917.21451
746.69259
1193.55502
1484.00085
465.55293
1310.44870
1655.12231
883.76537
855.22635
1675.22520
1498.12420
1039.51817
1377.75200
1227.93392
952.80106
1587.58187
662.71978
803.90743
840.67942
738.44583
610.21269
737.15656
748.76790
820.24984
734.96342
718.53993
846.31909
735.62920
705.74740
677.69289
744.72676
695.22720
745.18505
658.45901
823.10374
722.96373
834.10485
743.49037
655.50840
753.02901
729.95958
614.89562
793.85652
635.85094
829.05801
742.05932
817.72405
737.84509
799.33902
695.88960
694.01718
743.32380
729.30427
672.18840
704.97702
651.02235
797.39466
697.83330
753.87626
706.29172
840.86612
688.93055
871.48366
671.02713
891.06825
939.05971
842.10722
794.36472
790.27972
875.58232
576.65308
929.62806
931.85159
1873.38631
1245.25670
1313.06692
1586.77178
636.48919
812.34810
1125.48443
946.71161
690.01818
749.09590
956.11499
741.99302
605.68960
778.61464
624.09504
738.73396
832.99794
812.14484
708.90255
828.25473
617.30460
614.92492
729.21573
764.10367
655.68763
753.28984
737.44869
717.73509
790.71994
802.73591
752.63574
708.85060
696.34379
553.52315
782.97590
788.16681
784.46487
821.59320
745.80767
622.22409
676.68453
759.85711
742.03015
792.10520
728.67335
709.12637
726.05449
817.68574
663.84964
819.56198
796.23023
730.68220
789.03286
867.04203
707.60597
867.93715
836.43019
660.20069
838.28760
824.05308
741.99498
990.18716
707.44966
871.70125
1649.24358
983.39240
1260.67429
1173.97851
770.18082
581.54997
1031.24947
1016.18701
810.02412
859.87848
976.40857
686.61927
723.52214
937.64374
820.75092
741.94670
731.41115
878.21379
716.61671
550.97324
706.64253
768.59122
757.96492
738.28772
660.36965
755.92136
665.40162
838.42966
636.37736
759.05209
637.81480
738.33077
668.42710
787.10606
659.17142
744.57392
635.61327
722.60287
718.08373
724.42826
722.67386
701.91811
713.88354
697.12182
758.70355
817.53320
742.39253
680.24718
738.45406
832.43416
813.66564
868.24222
738.85328
737.12502
682.93240
895.55839
911.55006
831.15994
739.88030
854.26853
663.99242
795.30208
480.36484
902.58738
889.01378
1271.98538
1198.41600
896.74407
733.31902
1175.97598
1237.14770
914.66310
853.18883
902.06090
794.60171
872.36650
956.83009
900.95990
634.69192
833.99754
845.73858
854.80925
785.48359
733.33786
684.77730
800.26441
775.46210
753.66221
686.85916
823.20894
743.98668
852.55389
744.22116
854.59340
654.43956
783.96711
763.10608
679.91824
662.54849
740.41239
677.54338
772.85041
679.76069
835.32767
700.78246
862.79960
753.39825
837.45233
707.64305
874.85881
733.00863
868.11282
819.56593
827.01575
680.12933
823.00700
731.18396
803.25054
866.44530
874.92638
665.43111
760.90023
857.21610
714.67243
1045.08957
746.73739
901.63158
641.11514
649.07360
1017.17696
966.95207
1021.48515
874.75468
809.71660
866.51735
781.57205
898.78408
870.75336
759.75805
784.39273
877.16310
702.41503
881.91633
723.09107
754.88553
786.33188
845.84747
728.68222
740.33010
715.37660
691.86332
753.46573
788.49771
753.40865
863.08699
697.88418
746.28913
689.63260
821.23159
677.80156
812.23349
719.19947
717.70069
728.06425
844.82570
771.20181
756.49036
814.18530
730.26049
718.99664
755.59031
706.24656
853.75096
906.98248
749.47493
785.75440
852.89351
683.00953
877.89113
921.26897
966.16437
760.13675
385.68497
709.20282
1039.06923
901.12113
725.76056
906.45328
902.00682
979.11428
924.54431
805.67627
770.39002
873.53615
879.21447
872.75730
867.84077
820.94232
841.26805
799.97538
828.30947
796.61514
868.35784
747.35632
823.09804
826.47404
693.55595
687.56230
778.53589
778.41816
778.19811
786.32660
706.98886
773.20544
872.77966
751.91482
733.68420
798.33564
740.39717
791.87297
886.44351
691.09877
670.81409
808.54345
798.25612
761.86395
794.50778
778.09281
715.67721
833.39215
903.30449
864.40957
849.20729
838.39732
948.72867
731.34691
820.16671
968.46454
728.81615
305.11460
662.85874
765.51145
905.45542
690.71612
861.11733
633.86744
779.39555
885.87232
860.03280
787.46688
868.89365
788.38827
853.24546
832.56871
856.64482
651.84873
855.64985
811.94510
781.95497
793.81676
816.89945
800.61513
818.62387
790.62864
849.75135
777.70959
793.95741
774.63087
802.06293
784.31508
842.13308
781.61125
817.77422
848.29735
812.85132
766.38319
742.50529
792.26767
885.62647
695.16703
835.82010
805.78222
849.76454
835.29700
866.54659
785.59318
730.84432
840.00032
780.25301
1116.97106
962.22013
699.89681
735.26951
786.51451
784.00238
874.30335
801.28690
651.26397
814.77342
851.19957
902.28783
774.78538
916.85445
651.38529
904.62279
655.87383
996.99120
797.19552
897.54718
778.72022
875.57268
830.15321
839.17544
598.12746
881.07794
806.04319
889.79086
756.79784
1006.13292
774.75366
912.30579
725.18155
931.04091
910.69271
929.38840
624.77272
774.42492
647.75223
841.32583
860.00537
823.35693
759.71678
787.59894
735.06558
968.89513
831.13053
768.41065
809.65195
757.23647
690.79915
676.25845
650.93554
858.05460
800.70959
830.57191
922.82130
776.88532
800.83619
829.62821
667.17127
751.66864
950.83522
834.58589
799.44205
873.24141
632.76602
814.86748
685.79410
753.09500
737.91801
745.22175
675.03021
941.49492
994.19989
562.51776
688.46633
772.84123
1039.57879
784.78021
702.21256
541.47458
985.48140
0.10000
