# vtk DataFile Version 3.0
Point representing Sub_cellular elem model
ASCII

DATASET UNSTRUCTURED_GRID
POINTS 364 float
-0.56958 -0.01441 2.02285 
-0.74824 -0.12333 2.05509 
-0.75098 0.01150 2.03298 
-0.72386 0.18099 2.01539 
-0.71241 -0.29395 1.98170 
-0.75612 -0.12376 1.98781 
-0.67895 -0.13282 1.99061 
-0.55821 -0.20761 2.05760 
-0.68453 -0.10375 2.03105 
-0.71266 -0.02652 2.03323 
-0.68829 0.06248 2.01958 
-0.72384 0.10284 2.02281 
-0.66835 0.21810 2.01826 
-0.69741 0.27583 2.01054 
-0.65856 0.34849 2.00943 
-0.60086 -0.45338 1.98508 
-0.64825 -0.38634 1.98752 
-0.62291 -0.32443 1.98799 
-0.67294 -0.24295 1.99614 
-0.59053 -0.20875 1.99927 
-0.59698 -0.11643 2.04826 
-0.58584 -0.03289 2.00941 
-0.64710 0.01628 2.02612 
-0.61335 0.08548 2.00905 
-0.65157 0.14261 2.01254 
-0.59362 0.21931 2.00343 
-0.63077 0.28552 2.00465 
-0.59047 0.35381 2.00381 
-0.62085 0.41032 2.00259 
-0.57601 0.48452 2.00275 
-0.52284 -0.57834 1.98755 
-0.55058 -0.51782 1.98726 
-0.53385 -0.46698 1.99548 
-0.57431 -0.39547 1.99173 
-0.53647 -0.33516 2.00282 
-0.56829 -0.27065 2.00140 
-0.49739 -0.20496 2.01392 
-0.50624 -0.11998 2.00569 
-0.49054 -0.03648 2.01746 
-0.55477 0.02927 2.01519 
-0.51966 0.09081 2.00885 
-0.56323 0.14644 2.01482 
-0.51952 0.21654 2.00290 
-0.55329 0.28822 2.01158 
-0.51464 0.35409 1.99660 
-0.55288 0.42218 2.00735 
-0.51113 0.48602 1.99395 
-0.45350 -0.59027 1.98889 
-0.49394 -0.53430 1.98568 
-0.45624 -0.47110 1.99617 
-0.49550 -0.40277 1.98974 
-0.44565 -0.34019 2.00341 
-0.47598 -0.27436 1.99658 
-0.42270 -0.19911 2.00607 
-0.45781 -0.12342 2.00719 
-0.42149 -0.04544 2.00898 
-0.46678 0.02918 2.00073 
-0.43321 0.09198 2.01252 
-0.48052 0.15920 2.00096 
-0.43903 0.22597 2.00958 
-0.47484 0.29469 2.00059 
-0.43474 0.36636 2.00653 
-0.47280 0.42416 2.00330 
-0.43499 0.51088 2.00343 
-0.50437 0.55025 2.00072 
-0.44540 0.58710 1.99960 
-0.42221 -0.64811 1.98965 
-0.38684 -0.61171 1.98707 
-0.41684 -0.54063 1.99810 
-0.37680 -0.47496 1.99048 
-0.41258 -0.40497 2.00431 
-0.36277 -0.33919 1.99562 
-0.39289 -0.26951 2.01073 
-0.35621 -0.19507 2.00020 
-0.38538 -0.12015 2.01342 
-0.35326 -0.04813 2.00062 
-0.38566 0.02768 2.00895 
-0.35250 0.09502 1.99851 
-0.39741 0.15844 2.00131 
-0.35810 0.23120 1.99904 
-0.39926 0.29313 1.99572 
-0.35760 0.36628 2.00035 
-0.39460 0.43442 1.99325 
-0.35391 0.50640 2.00249 
-0.38571 0.57477 1.99221 
-0.36806 0.63487 1.99851 
-0.31314 -0.70568 1.99081 
-0.36241 -0.65941 1.98961 
-0.30718 -0.62623 1.99614 
-0.34533 -0.54798 1.99791 
-0.29588 -0.47651 2.00368 
-0.33005 -0.40887 2.00423 
-0.28198 -0.33583 2.00801 
-0.32077 -0.26680 2.00754 
-0.27640 -0.19148 2.01020 
-0.31847 -0.12278 2.01011 
-0.27534 -0.04790 2.00781 
-0.31697 0.02016 2.01092 
-0.27702 0.09035 2.00322 
-0.31650 0.16135 2.01031 
-0.27885 0.22791 1.99677 
-0.31885 0.29981 2.00649 
-0.27990 0.36650 1.99240 
-0.31494 0.44120 2.00321 
-0.27387 0.50964 1.99094 
-0.30773 0.58944 2.00001 
-0.24938 0.65293 1.99100 
-0.30817 0.66752 1.99745 
-0.22308 -0.75610 1.99279 
-0.25185 -0.69179 1.98721 
-0.22736 -0.61909 2.00224 
-0.26642 -0.54898 1.99156 
-0.21764 -0.47871 2.00489 
-0.24925 -0.40719 1.99535 
-0.20743 -0.33554 2.00782 
-0.24227 -0.26362 1.99824 
-0.20425 -0.19258 2.01065 
-0.23969 -0.11986 1.99998 
-0.20166 -0.05091 2.01137 
-0.23666 0.02254 1.99927 
-0.19894 0.09027 2.01117 
-0.23596 0.16294 1.99936 
-0.19815 0.23063 2.00831 
-0.23905 0.29921 1.99910 
-0.19946 0.36878 2.00457 
-0.23961 0.43562 2.00045 
-0.19446 0.50816 2.00054 
-0.23138 0.57879 2.00265 
-0.17498 0.66025 1.99536 
-0.22411 0.71073 1.99655 
-0.11226 -0.78806 1.99189 
-0.17658 -0.70580 1.99715 
-0.15112 -0.61803 1.99259 
-0.18602 -0.54336 2.00456 
-0.13640 -0.47240 1.99690 
-0.16924 -0.40171 2.00703 
-0.12674 -0.33007 1.99772 
-0.16294 -0.25960 2.00757 
-0.12331 -0.18788 1.99904 
-0.16141 -0.11864 2.00677 
-0.12039 -0.04682 1.99936 
-0.16040 0.01996 2.00344 
-0.11816 0.09342 1.99905 
-0.15971 0.15820 1.99895 
-0.11799 0.23107 1.99989 
-0.15948 0.29655 1.99393 
-0.11941 0.36511 2.00102 
-0.15956 0.43409 1.99068 
-0.11720 0.49810 2.00270 
-0.15027 0.57367 1.98957 
-0.10248 0.63330 2.00410 
-0.14194 0.73216 1.99591 
0.06963 -0.72830 2.01125 
-0.10132 -0.71773 2.00563 
-0.07329 -0.58565 2.01004 
-0.10309 -0.53733 2.00520 
-0.05384 -0.45496 2.00776 
-0.09139 -0.40054 2.00833 
-0.04713 -0.32316 2.00615 
-0.08745 -0.25968 2.00993 
-0.04506 -0.18629 2.00451 
-0.08443 -0.11886 2.01096 
-0.04319 -0.04816 2.00264 
-0.08132 0.02170 2.01048 
-0.04098 0.09042 1.99909 
-0.07888 0.16188 2.00932 
-0.03909 0.22901 1.99585 
-0.07864 0.30064 2.00667 
-0.03881 0.36661 1.99221 
-0.07877 0.43714 2.00214 
-0.03743 0.50326 1.98972 
-0.07032 0.56739 1.99603 
-0.02594 0.64552 1.98938 
-0.07605 0.70507 1.99149 
-0.04491 0.75528 1.99273 
-0.01395 -0.54939 2.03706 
-0.09690 -0.72895 2.01524 
-0.01427 -0.65699 1.98619 
0.04525 -0.58756 2.01086 
-0.01180 -0.51878 1.99630 
0.03328 -0.45681 2.00985 
-0.00772 -0.38907 1.99747 
0.03223 -0.32271 2.01031 
-0.00524 -0.25259 1.99831 
0.03413 -0.18456 2.01041 
-0.00268 -0.11357 1.99895 
0.03713 -0.04495 2.01039 
-0.00016 0.02583 1.99948 
0.04017 0.09497 2.00879 
0.00162 0.16415 1.99965 
0.04210 0.23433 2.00693 
0.00193 0.29994 2.00061 
0.04201 0.37196 2.00400 
0.00312 0.43352 2.00110 
0.04293 0.50575 1.99915 
0.00554 0.56820 2.00257 
0.04388 0.64135 1.99328 
0.01263 0.71289 1.99899 
0.05994 0.75895 1.99160 
0.08357 -0.78579 1.99589 
0.07398 -0.71595 2.00685 
0.12434 -0.61427 1.99322 
0.08110 -0.53007 2.00302 
0.11785 -0.46771 1.99728 
0.07403 -0.39305 2.00276 
0.11483 -0.32492 1.99815 
0.07316 -0.25458 2.00176 
0.11593 -0.18328 1.99850 
0.07485 -0.11544 2.00053 
0.11830 -0.04262 1.99914 
0.07768 0.02383 1.99840 
0.12072 0.09706 1.99958 
0.08062 0.16310 1.99582 
0.12245 0.23564 1.99946 
0.08260 0.30180 1.99323 
0.12414 0.37219 1.99977 
0.08367 0.43840 1.98914 
0.12761 0.50432 1.99954 
0.08338 0.57200 1.98722 
0.12096 0.63580 2.00187 
0.09919 0.70859 1.98893 
0.19295 -0.75128 1.99688 
0.14533 -0.70378 1.99956 
0.19951 -0.61161 2.00190 
0.16194 -0.54227 2.00590 
0.19425 -0.47044 1.99921 
0.15316 -0.39783 2.00868 
0.19059 -0.32708 1.99933 
0.15288 -0.25517 2.00923 
0.19233 -0.18528 1.99792 
0.15563 -0.11368 2.00874 
0.19574 -0.04438 1.99731 
0.15899 0.02730 2.00845 
0.19912 0.09641 1.99546 
0.16172 0.16820 2.00675 
0.20173 0.23770 1.99331 
0.16290 0.30924 2.00423 
0.20326 0.37971 1.99106 
0.16237 0.44954 2.00110 
0.20244 0.52210 1.98875 
0.16145 0.58171 1.99567 
0.18541 0.67350 1.98863 
0.15550 0.75111 1.99431 
0.28156 -0.69981 1.99605 
0.21996 -0.68606 1.98975 
0.27571 -0.62284 1.99980 
0.24105 -0.54265 1.99262 
0.27129 -0.47110 2.00565 
0.23327 -0.39736 1.99584 
0.27013 -0.32647 2.00694 
0.23328 -0.25404 1.99744 
0.27325 -0.18387 2.00700 
0.23600 -0.11261 1.99844 
0.27727 -0.04256 2.00706 
0.23896 0.02777 1.99915 
0.28047 0.09848 2.00547 
0.24115 0.16833 1.99890 
0.28212 0.24009 2.00444 
0.24218 0.30970 1.99801 
0.28176 0.38233 2.00281 
0.24175 0.45132 1.99685 
0.27762 0.52338 2.00113 
0.23117 0.58916 1.99322 
0.25910 0.65338 1.99893 
0.23408 0.71269 1.99118 
0.33668 -0.65328 1.99266 
0.35279 -0.60497 1.99282 
0.31074 -0.54217 1.99571 
0.35015 -0.46719 1.99215 
0.30670 -0.39901 1.99549 
0.34932 -0.32466 1.99462 
0.30858 -0.25628 1.99492 
0.35242 -0.18359 1.99741 
0.31304 -0.11460 1.99513 
0.35635 -0.04342 1.99846 
0.31708 0.02659 1.99414 
0.35921 0.09705 1.99799 
0.31988 0.16829 1.99281 
0.36042 0.23866 1.99733 
0.32118 0.31108 1.99105 
0.36033 0.38060 1.99525 
0.32122 0.45440 1.99037 
0.35723 0.52141 1.99225 
0.31718 0.59962 1.98933 
0.37531 0.64617 1.99175 
0.31523 0.67481 1.99169 
0.39129 -0.64746 1.99565 
0.42704 -0.59234 1.99124 
0.38517 -0.53793 2.00175 
0.42318 -0.46683 1.99188 
0.38616 -0.39697 2.00388 
0.42380 -0.32804 1.99091 
0.38966 -0.25485 2.00418 
0.42883 -0.18635 1.99127 
0.39499 -0.11367 2.00475 
0.43466 -0.04502 1.99123 
0.39905 0.02660 2.00395 
0.43816 0.09578 1.99077 
0.40116 0.16718 2.00326 
0.43902 0.23806 1.99053 
0.40118 0.30890 2.00262 
0.43931 0.38089 1.98997 
0.39973 0.45070 2.00201 
0.44340 0.52560 1.98964 
0.39406 0.58680 1.99983 
0.45395 0.60259 1.99188 
0.49317 -0.57686 1.99424 
0.46052 -0.52801 1.99095 
0.50138 -0.46377 1.99963 
0.46476 -0.39568 1.99201 
0.50433 -0.32821 2.00129 
0.46658 -0.25673 1.99513 
0.51061 -0.18667 2.00056 
0.47152 -0.11620 1.99719 
0.51682 -0.04589 1.99979 
0.47661 0.02434 1.99742 
0.51996 0.09313 2.00040 
0.47769 0.16553 1.99783 
0.52010 0.23371 2.00066 
0.47799 0.30664 1.99604 
0.51962 0.37350 2.00144 
0.47860 0.44203 1.99207 
0.51992 0.50442 2.00093 
0.51234 0.56849 1.99194 
0.52197 -0.52233 1.99049 
0.56209 -0.44988 1.99122 
0.54012 -0.39656 1.98880 
0.57874 -0.32864 1.99239 
0.54164 -0.26161 1.98763 
0.58038 -0.19205 1.99624 
0.54991 -0.11814 1.98760 
0.59054 -0.05041 1.99725 
0.55670 0.02256 1.98789 
0.59434 0.09342 1.99825 
0.55713 0.16321 1.98845 
0.59134 0.23540 1.99835 
0.55588 0.30636 1.98827 
0.59601 0.37179 1.99490 
0.56139 0.44003 1.98945 
0.58564 0.50362 1.99204 
0.60767 -0.38891 1.99365 
0.64490 -0.32854 1.98951 
0.61985 -0.26405 1.99712 
0.65453 -0.19616 1.98535 
0.63642 -0.11904 1.99653 
0.67076 -0.05119 1.98742 
0.62783 0.02084 1.99386 
0.67465 0.09063 1.98793 
0.64354 0.16006 1.99809 
0.66625 0.23615 1.98754 
0.63418 0.30562 1.99929 
0.66437 0.36820 1.99195 
0.63018 0.43079 1.99570 
0.68604 -0.25377 1.99280 
0.70720 -0.15958 1.99340 
0.70704 -0.10287 1.99291 
0.73583 -0.02948 1.99146 
0.69354 0.01905 1.99960 
0.73837 0.06540 1.99157 
0.71352 0.14038 1.99411 
0.71689 0.19675 1.99570 
0.70055 0.29220 1.99578 
0.91878 0.39477 2.00000 
0.00000 0.00000 -1.50000 
CELLS 1023 3068
2 0 5
2 0 6
2 0 7
2 0 20
2 1 2
2 1 7
2 1 8
2 1 9
2 2 9
2 2 10
2 2 11
2 3 11
2 3 12
2 3 13
2 3 24
2 4 5
2 4 16
2 4 17
2 4 18
2 5 6
2 5 18
2 6 18
2 6 19
2 6 20
2 7 8
2 7 20
2 8 9
2 8 20
2 8 21
2 8 22
2 9 10
2 9 22
2 10 11
2 10 22
2 10 23
2 10 24
2 11 24
2 12 13
2 12 24
2 12 25
2 12 26
2 13 14
2 13 26
2 14 26
2 14 27
2 14 28
2 15 16
2 15 31
2 15 32
2 15 33
2 16 17
2 16 33
2 17 18
2 17 33
2 17 34
[...]
CELL_DATA 1023
SCALARS Strain double 
LOOKUP_TABLE default 
2189.52608
1642.86996
1965.30106
1085.48988
1365.56628
2077.92336
707.53029
1053.27095
538.85396
818.05656
957.34255
783.95696
667.33348
984.81601
817.93296
1757.23114
1125.33033
946.57126
659.94784
776.53344
1454.87236
1103.24728
1167.71542
1014.45312
1655.74934
994.18635
821.21116
900.20156
1233.05230
1257.24059
931.81194
785.15873
537.82695
621.41553
789.93039
883.21325
830.19996
649.97311
774.43492
760.91937
782.74624
823.01760
674.97482
688.94998
684.25856
726.37356
820.38791
816.64800
690.67501
639.59545
667.88835
745.24687
958.63573
860.57026
882.56151
777.25145
891.77770
1082.80838
1046.10076
657.05049
942.57151
1224.79225
927.06530
1001.85736
802.15695
1179.38855
956.00408
696.32778
787.57938
937.79347
687.24865
813.19213
937.45842
790.33996
964.63404
883.54706
758.26346
796.69702
740.60917
801.62317
791.99341
777.38738
640.72079
756.87717
760.71944
780.08612
865.97098
690.66407
665.48079
653.95600
971.50442
664.72750
702.65987
526.01509
540.47798
589.05278
821.47665
787.71253
776.20062
749.08039
719.52275
790.65139
718.44330
800.31603
908.63161
858.93344
973.60079
924.11039
857.31799
745.79072
752.33250
907.86132
856.77555
484.73700
918.38898
933.64186
700.45701
717.00156
710.31587
890.69785
708.19402
815.07571
864.32356
790.96253
833.64511
847.35156
796.16213
692.71665
812.13749
899.54232
777.27044
793.77583
787.29391
715.08826
813.43474
817.82015
773.42760
801.04619
732.67320
805.54446
648.44603
690.21850
656.63368
699.51274
622.96152
742.34929
782.56882
789.70180
798.41423
796.40093
795.61212
810.66745
841.24937
726.99418
726.40553
831.50482
884.08542
925.92304
843.21609
833.50877
764.85047
667.67032
875.44472
859.44082
726.71149
875.77660
829.97881
686.90108
813.22732
720.80986
814.49177
829.01025
799.55591
818.75920
762.20610
789.79654
830.13486
779.17363
796.50541
816.83176
791.75031
822.40046
756.53876
691.80053
819.85805
772.87054
800.21114
945.07139
794.09444
797.20085
769.20241
869.76023
811.13066
813.62333
694.48444
612.99668
908.10267
507.21307
607.62597
778.32056
535.48908
813.76778
767.18003
771.87494
717.78670
797.13710
797.59254
818.98956
820.15800
828.70476
825.20575
773.01418
773.63020
817.05936
844.29576
835.48159
721.40477
813.79936
802.45239
804.17451
820.54129
797.88942
669.50863
827.64055
828.02828
781.58675
779.17356
756.84244
690.32467
776.64671
836.90054
756.70675
762.86862
826.24610
813.58151
743.42604
819.73027
792.42806
792.91118
842.11352
813.01977
777.55932
770.91238
780.03418
861.58789
831.05246
804.65231
759.92884
758.64200
808.32504
949.49398
628.55420
796.30850
754.35382
681.19312
675.02299
797.53802
1031.33748
628.54198
646.59222
869.67868
861.53893
802.72735
873.62956
870.07440
790.71703
756.79822
790.60637
781.80040
838.54061
874.18841
812.02806
790.80061
794.26474
744.53800
828.81878
873.61882
790.14906
804.63197
805.94924
720.55544
810.31662
863.43967
793.79094
797.38926
805.88014
737.25035
807.03292
810.33209
810.80155
814.41445
789.15674
783.87380
833.82238
775.63292
811.91388
827.44040
777.95980
814.72103
815.86396
784.12622
800.49574
831.11373
789.13929
812.94823
803.05280
806.53388
754.90027
870.62192
820.23712
799.06389
818.96639
865.94525
780.23562
770.27573
608.19446
770.77937
747.81228
632.23273
944.19383
705.76220
1152.44538
685.37542
780.68138
771.02363
808.70131
1005.15423
767.52769
862.12529
864.65914
815.45118
786.74131
718.67542
817.82096
908.78015
838.02180
809.46345
803.83949
763.09797
813.97339
879.05713
814.23278
798.80301
815.00535
786.87688
818.06864
854.47572
794.60210
784.82763
821.58656
788.19456
821.57758
822.92088
783.44520
763.22530
823.04682
804.51910
816.43754
792.88532
779.50013
763.04859
802.77079
824.27176
805.03565
776.62331
801.39587
796.74750
779.74646
831.42380
801.13042
776.79461
853.50339
805.50176
796.24557
823.67854
778.35439
796.75618
992.47498
822.20717
703.44674
901.20825
777.37805
790.39558
1085.83547
848.20204
1044.54224
1923.23398
723.86643
914.02337
765.68345
831.91555
1121.04524
859.91057
946.58336
868.24175
830.45899
784.98207
733.45173
849.81174
854.53231
837.19453
777.63481
797.25810
794.58373
802.58913
814.31964
822.87992
754.32186
793.07679
808.93373
783.53920
800.04906
829.45338
769.90676
778.55923
812.50224
771.75841
795.49784
847.45903
793.08429
768.65258
813.28536
771.36902
794.98084
838.73926
814.75715
776.44050
799.38699
789.22662
801.13163
796.32905
818.42742
803.87971
763.81468
809.92256
826.12977
775.93553
815.56861
834.25931
719.62680
808.88381
838.26493
776.83746
803.59489
736.82944
787.99348
774.12559
712.77687
997.00537
1712.65965
1990.51758
1128.28819
1350.02187
1078.15047
568.76594
955.07465
1184.52544
917.73299
959.10369
934.82867
660.18124
771.78976
870.59073
809.72907
890.80223
850.50017
751.92419
771.86848
793.64311
823.33744
848.26404
832.27865
782.46174
774.94116
793.24082
842.52159
821.67303
827.03334
798.76471
769.25671
806.55336
855.57591
803.99852
819.03041
814.27879
763.06420
817.50640
850.52511
790.85062
810.09354
824.38805
765.71520
820.24297
819.80741
783.02729
807.04035
815.80003
784.79392
817.50665
793.59541
788.62060
818.76941
722.50199
813.66952
808.47036
788.19673
900.00505
760.38998
777.54638
844.17013
699.53647
781.20104
589.98416
892.38345
716.38861
1048.17727
1989.01921
1189.17352
1132.64363
1900.99337
1714.82489
946.18549
1080.30964
904.35163
1315.32032
852.25541
680.98166
777.15916
937.21869
800.42359
876.53639
860.92922
759.05749
784.13448
819.15994
802.98787
820.66347
834.20006
798.38823
794.22067
784.00493
806.83405
805.32013
825.79417
807.31519
800.51650
774.68831
806.41443
804.63636
818.85721
806.38786
804.76669
777.79531
796.24412
809.89695
810.05733
801.93695
812.42482
790.02394
770.92546
816.36412
806.04625
797.74999
823.94650
809.29216
727.70961
816.75992
821.36383
797.11084
824.00149
814.78344
727.71762
792.42685
845.92277
784.31720
830.08436
793.34949
781.80811
799.41484
776.54980
870.75141
663.42423
871.50046
638.08686
958.16860
712.38368
1146.00393
1026.35855
1141.94067
726.54386
950.53518
920.57139
756.07761
821.05422
725.14703
817.07393
866.47664
869.47404
763.67692
790.19429
794.43463
794.03060
817.28775
829.49230
757.00032
801.21390
831.16845
799.69191
792.26458
814.42935
763.29664
806.74819
847.15267
811.14881
777.86556
807.40712
773.75133
813.31513
848.49079
819.04000
772.49861
799.60627
784.12191
823.19222
837.16607
818.84739
773.80340
782.77957
794.46410
840.14976
818.94931
812.89634
782.29713
739.59671
798.53580
861.92498
798.03492
802.80132
816.80277
647.94807
775.66244
844.54608
753.81252
790.18585
769.70971
677.40770
757.32648
929.90898
706.61646
672.10452
1023.76425
708.48433
1068.28741
772.26533
788.67509
780.55461
769.60164
809.47012
789.44091
801.18250
838.58034
862.02172
772.16237
828.11582
804.84478
810.26117
816.95719
821.98540
798.04285
845.22113
809.48857
811.62442
810.86798
799.24035
813.34652
846.78489
807.79015
809.26475
812.17624
791.33658
820.29826
840.22044
808.60219
804.02161
816.37319
793.46007
818.91164
832.73106
812.12468
797.23351
820.28349
798.82932
810.88830
826.16050
821.70810
794.26139
814.41353
803.08159
793.18577
814.07331
837.05547
794.17813
725.78208
812.65672
761.02735
729.86994
950.25630
700.60633
832.68985
959.64234
769.74178
624.38399
874.30298
633.30433
771.84548
721.18862
847.87225
875.61284
684.17124
793.31192
879.40519
786.56013
696.62591
834.45011
817.92982
800.01327
808.60117
805.67685
733.54313
817.17848
819.41228
800.65933
808.31926
812.18573
752.78396
807.61617
813.64330
796.53359
806.58326
816.63277
770.36371
803.75261
812.14552
794.56894
807.33512
821.42112
781.95901
803.25769
813.64966
790.00643
810.58383
827.13185
788.60165
804.09932
818.48071
785.36482
820.29488
827.57043
792.12768
798.77120
821.70036
788.47941
830.01511
805.00201
796.92992
808.13287
822.07505
800.27006
865.98270
701.72645
866.29354
647.31782
796.21266
604.16713
894.56607
508.25003
548.93260
755.27396
573.01950
752.33909
748.78820
846.81101
746.93475
808.17745
794.17680
729.30585
796.85008
855.97966
798.23236
795.03608
815.71561
745.52879
810.98822
848.26523
815.24282
793.69564
805.90804
766.04667
820.80600
832.90401
824.20004
802.89742
803.19593
785.55346
820.98628
820.78165
824.51061
814.41938
810.51866
791.96713
817.89587
812.35541
818.57591
825.14174
823.86807
787.92113
812.87607
797.93574
807.63693
835.64426
827.46155
790.64459
805.99956
759.95639
793.47803
878.14106
829.72291
862.16061
753.29188
744.19021
751.53984
785.46906
664.53763
626.81874
898.07166
657.46633
693.55842
678.81041
724.23394
811.22991
766.64676
798.73848
715.77211
785.42857
823.09622
795.00163
794.04686
817.44872
789.81123
810.95384
831.61607
798.55783
773.66221
811.97076
798.58618
821.99769
822.33388
803.35691
768.46481
808.86557
802.80550
825.06584
811.95542
804.54252
777.67618
812.82692
812.95960
823.08238
803.85105
812.59828
766.38330
811.24010
824.11183
817.29642
789.77753
823.40464
770.21035
810.54630
838.33840
813.53254
726.01825
874.79621
798.71442
791.76470
776.43228
906.11440
800.92944
811.24043
623.45121
675.14809
587.49902
616.83230
765.24195
616.16677
775.82526
626.45412
627.44006
782.27994
786.73472
753.36376
809.66413
780.61551
748.38349
774.48692
828.21229
754.95549
805.60242
820.32215
700.18111
799.58577
835.70664
788.93635
808.65144
802.94962
738.08596
800.10803
812.66926
805.75312
837.79775
804.43533
743.07840
801.20317
802.40438
799.25872
842.48763
804.55609
711.93264
818.25619
788.41122
781.82683
803.16892
773.36944
765.87175
793.73351
752.59075
827.54770
650.41934
773.41505
662.22031
977.86523
827.12264
576.25135
760.63102
781.09246
680.48283
766.61484
667.62409
661.28343
766.17584
799.83258
787.23079
803.14172
820.08274
749.58597
919.36206
794.75575
868.83128
808.72470
824.62356
807.26341
803.88072
808.01710
712.95253
796.01237
799.47127
809.20950
827.36611
803.95561
869.04560
798.59781
915.60409
755.94769
821.54956
769.42272
789.69810
766.15936
764.19418
684.25337
680.90041
680.06004
695.88964
853.46753
709.52723
695.05201
853.00003
770.29831
670.16295
799.03067
659.79621
645.32262
764.95601
815.22807
724.32702
840.04961
632.78492
686.09623
747.40975
841.52549
658.87484
766.56271
748.42015
685.33951
633.29877
800.09138
727.03656
819.48307
773.06616
645.74796
661.18354
697.76713
677.04362
713.22097
841.60670
964.42001
566.12232
787.51465
647.83895
948.06812
648.79171
789.34132
563.98363
967.32858
0.10000
