# vtk DataFile Version 3.0
Point representing Sub_cellular elem model
ASCII

DATASET UNSTRUCTURED_GRID
POINTS 364 float
-0.40932 -0.02918 2.00666 
-0.53788 -0.13932 2.01096 
-0.57468 -0.03990 2.01161 
-0.55434 0.12476 2.00958 
-0.53285 -0.22112 2.01127 
-0.54533 -0.09548 2.00846 
-0.49737 -0.10575 2.01147 
-0.39402 -0.16964 2.00801 
-0.50164 -0.10882 2.01210 
-0.52966 -0.05970 2.00976 
-0.52103 0.01065 2.00915 
-0.56851 0.04971 2.01055 
-0.51006 0.15230 2.00772 
-0.53438 0.18398 2.00838 
-0.51246 0.24178 2.00707 
-0.43735 -0.38020 2.01157 
-0.48809 -0.30963 2.01140 
-0.45319 -0.25111 2.00977 
-0.48731 -0.18379 2.00836 
-0.42916 -0.16924 2.00931 
-0.43263 -0.10294 1.99907 
-0.43278 -0.03642 2.00847 
-0.48218 -0.01889 2.00733 
-0.45930 0.03971 2.00719 
-0.50194 0.08899 2.00776 
-0.46189 0.14837 2.00652 
-0.48779 0.19482 2.00701 
-0.45766 0.24930 2.00580 
-0.48125 0.29842 2.00611 
-0.44464 0.34946 2.00494 
-0.33938 -0.48931 2.01131 
-0.38571 -0.43981 2.01167 
-0.36650 -0.37930 2.01000 
-0.41250 -0.31737 2.00982 
-0.38138 -0.26177 2.00788 
-0.41135 -0.20830 2.00785 
-0.36211 -0.16178 2.00529 
-0.36914 -0.10068 2.00764 
-0.36564 -0.03960 2.00395 
-0.41661 0.00301 2.00563 
-0.39565 0.05216 2.00523 
-0.43286 0.09818 2.00602 
-0.40265 0.15379 2.00495 
-0.43142 0.20191 2.00536 
-0.40108 0.25556 2.00450 
-0.42657 0.30129 2.00508 
-0.39818 0.34436 2.00431 
-0.26709 -0.50171 2.00966 
-0.31761 -0.43796 2.01000 
-0.29830 -0.37802 2.00836 
-0.34339 -0.31979 2.00804 
-0.31740 -0.26206 2.00665 
-0.34607 -0.20968 2.00683 
-0.31258 -0.15382 2.00538 
-0.33141 -0.09905 2.00421 
-0.31676 -0.04216 2.00425 
-0.35498 0.00780 2.00460 
-0.33489 0.05827 2.00397 
-0.37038 0.10561 2.00452 
-0.34213 0.15967 2.00319 
-0.37273 0.20802 2.00384 
-0.34237 0.26204 2.00334 
-0.37134 0.30846 2.00413 
-0.34454 0.36796 2.00359 
-0.39955 0.39103 2.00404 
-0.34881 0.42865 2.00360 
-0.20311 -0.55122 2.00899 
-0.18342 -0.49364 2.00701 
-0.24596 -0.43681 2.00781 
-0.23343 -0.37390 2.00652 
-0.27997 -0.31720 2.00689 
-0.26014 -0.25651 2.00545 
-0.28985 -0.20475 2.00493 
-0.26315 -0.14703 2.00378 
-0.28865 -0.09573 2.00357 
-0.26660 -0.04044 2.00286 
-0.29918 0.00990 2.00323 
-0.27591 0.06228 2.00251 
-0.30955 0.11107 2.00289 
-0.28118 0.16449 2.00208 
-0.31240 0.21360 2.00236 
-0.28133 0.26739 2.00208 
-0.31148 0.31673 2.00308 
-0.27717 0.37057 2.00243 
-0.30169 0.41244 2.00260 
-0.29347 0.46219 2.00253 
-0.01568 -0.54105 2.00180 
-0.12120 -0.55147 2.00585 
-0.08862 -0.48631 2.00422 
-0.17322 -0.43132 2.00560 
-0.17676 -0.36633 2.00511 
-0.22388 -0.30998 2.00507 
-0.20973 -0.24573 2.00349 
-0.23703 -0.19664 2.00398 
-0.21075 -0.13907 2.00267 
-0.23779 -0.09070 2.00269 
-0.21198 -0.03635 2.00153 
-0.24296 0.01296 2.00200 
-0.21654 0.06582 2.00148 
-0.24897 0.11519 2.00186 
-0.21972 0.16820 2.00094 
-0.25095 0.21785 2.00117 
-0.21909 0.27071 2.00064 
-0.24847 0.32075 2.00159 
-0.21307 0.37340 2.00097 
-0.24088 0.42883 2.00169 
-0.19031 0.46623 2.00072 
-0.23438 0.49101 2.00141 
0.09070 -0.48189 1.99810 
0.00987 -0.48739 2.00175 
-0.02209 -0.45536 2.00012 
-0.10880 -0.42545 2.00391 
-0.13616 -0.35359 2.00299 
-0.17937 -0.29668 2.00438 
-0.16427 -0.22803 2.00329 
-0.18556 -0.18491 2.00225 
-0.15592 -0.12940 2.00179 
-0.18296 -0.08431 2.00163 
-0.15426 -0.03159 2.00072 
-0.18482 0.01661 2.00107 
-0.15606 0.06897 2.00064 
-0.18792 0.11852 2.00114 
-0.15776 0.17088 1.99993 
-0.18885 0.22079 2.00008 
-0.15677 0.27246 1.99967 
-0.18566 0.32243 1.99994 
-0.15027 0.37166 1.99983 
-0.17319 0.42193 2.00053 
-0.12866 0.47068 1.99945 
-0.17217 0.51404 2.00011 
0.15446 -0.34906 1.99344 
0.07582 -0.42466 1.99682 
0.04000 -0.40341 2.00093 
-0.05238 -0.41766 2.00412 
-0.10580 -0.32481 2.00447 
-0.14182 -0.27359 2.00131 
-0.11509 -0.20343 2.00061 
-0.13204 -0.17011 2.00123 
-0.09758 -0.11896 2.00014 
-0.12510 -0.07745 2.00057 
-0.09416 -0.02727 1.99953 
-0.12478 0.02005 1.99997 
-0.09456 0.07136 1.99901 
-0.12622 0.12102 1.99979 
-0.09542 0.17265 1.99918 
-0.12654 0.22261 1.99937 
-0.09470 0.27324 1.99894 
-0.12370 0.32238 1.99919 
-0.09028 0.36946 1.99872 
-0.11370 0.41660 1.99922 
-0.07934 0.44968 1.99840 
-0.10571 0.52966 1.99883 
0.11371 -0.20949 1.98982 
0.11104 -0.27753 1.99480 
0.06319 -0.27783 1.98951 
-0.01585 -0.38386 1.99611 
-0.06880 -0.26752 1.99744 
-0.09671 -0.23552 2.00366 
-0.04267 -0.18312 1.99920 
-0.07147 -0.15295 2.00082 
-0.03440 -0.11166 1.99886 
-0.06426 -0.07185 1.99936 
-0.03218 -0.02483 1.99863 
-0.06316 0.02251 1.99863 
-0.03217 0.07274 1.99801 
-0.06384 0.12261 1.99862 
-0.03280 0.17367 1.99818 
-0.06419 0.22371 1.99856 
-0.03303 0.27364 1.99792 
-0.06282 0.32204 1.99819 
-0.03180 0.36831 1.99757 
-0.05823 0.41215 1.99803 
-0.03056 0.45311 1.99726 
-0.06438 0.49084 1.99815 
-0.03743 0.54034 1.99685 
-0.00327 -0.15099 1.99077 
-0.12176 -0.20575 1.99606 
-0.00393 -0.19738 1.99394 
-0.07370 -0.27569 1.99445 
-0.00502 -0.30947 2.01455 
0.05980 -0.26953 1.99701 
-0.00359 -0.21484 2.00220 
0.03668 -0.18434 1.99833 
-0.00231 -0.14719 1.99977 
0.03108 -0.11249 1.99800 
-0.00114 -0.06992 1.99833 
0.03071 -0.02518 1.99760 
-0.00068 0.02335 1.99780 
0.03063 0.07278 1.99686 
-0.00107 0.12329 1.99741 
0.02992 0.17400 1.99672 
-0.00187 0.22429 1.99755 
0.02845 0.27406 1.99661 
-0.00259 0.32204 1.99689 
0.02619 0.36860 1.99587 
-0.00298 0.41199 1.99669 
0.02445 0.45317 1.99575 
-0.00312 0.49573 1.99627 
0.03137 0.54015 1.99521 
-0.16684 -0.34349 2.00526 
-0.12110 -0.27374 2.00231 
-0.05427 -0.40151 2.00882 
0.00230 -0.38418 2.00070 
0.09445 -0.32788 2.00486 
0.08899 -0.23834 2.00236 
0.10831 -0.20699 1.99867 
0.06680 -0.15507 1.99899 
0.09471 -0.12115 1.99744 
0.06231 -0.07288 1.99759 
0.09342 -0.02820 1.99661 
0.06218 0.02231 1.99671 
0.09349 0.07157 1.99614 
0.06183 0.12304 1.99634 
0.09255 0.17369 1.99558 
0.06041 0.22451 1.99634 
0.08994 0.27455 1.99536 
0.05751 0.32280 1.99531 
0.08432 0.37035 1.99450 
0.05214 0.41247 1.99521 
0.07299 0.44980 1.99475 
0.05801 0.49077 1.99487 
-0.10778 -0.47785 2.01080 
-0.09101 -0.42153 2.00687 
0.00548 -0.45555 2.00662 
0.03779 -0.41880 2.00826 
0.12365 -0.35753 2.00267 
0.13245 -0.27767 1.99991 
0.15694 -0.23254 2.00038 
0.12744 -0.17341 1.99827 
0.15445 -0.13245 1.99723 
0.12431 -0.07936 1.99667 
0.15531 -0.03303 1.99626 
0.12476 0.01963 1.99612 
0.15600 0.06935 1.99528 
0.12453 0.12192 1.99542 
0.15493 0.17280 1.99464 
0.12255 0.22440 1.99484 
0.15150 0.27490 1.99422 
0.11795 0.32406 1.99457 
0.14371 0.37318 1.99371 
0.10722 0.41719 1.99412 
0.12187 0.47055 1.99356 
0.09935 0.52903 1.99415 
-0.00389 -0.53993 2.01198 
-0.02758 -0.48629 2.01075 
0.07024 -0.48790 2.00921 
0.09304 -0.42859 2.00615 
0.16298 -0.37117 2.00416 
0.16902 -0.30164 2.00202 
0.20258 -0.25115 1.99952 
0.18187 -0.18926 1.99819 
0.21190 -0.14320 1.99710 
0.18467 -0.08700 1.99640 
0.21624 -0.03852 1.99580 
0.18670 0.01594 1.99542 
0.21788 0.06645 1.99429 
0.18679 0.12011 1.99458 
0.21682 0.17131 1.99380 
0.18446 0.22376 1.99394 
0.21300 0.27463 1.99325 
0.17910 0.32526 1.99375 
0.20544 0.37612 1.99281 
0.16603 0.42259 1.99318 
0.18275 0.46571 1.99287 
0.16498 0.51280 1.99302 
0.10033 -0.55265 2.01171 
0.16301 -0.49699 2.00895 
0.15571 -0.43549 2.00612 
0.21741 -0.38023 2.00360 
0.21258 -0.31613 2.00153 
0.25329 -0.26340 1.99945 
0.23531 -0.20212 1.99818 
0.26908 -0.15215 1.99719 
0.24392 -0.09449 1.99645 
0.27638 -0.04393 1.99535 
0.24789 0.01186 1.99487 
0.27896 0.06330 1.99363 
0.24837 0.11779 1.99378 
0.27775 0.16924 1.99288 
0.24582 0.22241 1.99283 
0.27379 0.27316 1.99229 
0.24058 0.32559 1.99272 
0.26764 0.37744 1.99226 
0.23287 0.42860 1.99227 
0.28035 0.46063 1.99148 
0.22547 0.48912 1.99203 
0.18076 -0.55386 2.01140 
0.24396 -0.50641 2.00851 
0.22581 -0.44266 2.00588 
0.27886 -0.38678 2.00352 
0.26659 -0.32553 2.00139 
0.30906 -0.27168 1.99919 
0.29072 -0.21142 1.99789 
0.32674 -0.15923 1.99666 
0.30283 -0.10098 1.99613 
0.33596 -0.04878 1.99466 
0.30826 0.00781 1.99425 
0.33913 0.06025 1.99320 
0.30900 0.11523 1.99312 
0.33749 0.16696 1.99253 
0.30592 0.22026 1.99235 
0.33283 0.27003 1.99177 
0.30129 0.32331 1.99190 
0.33048 0.37337 1.99135 
0.28494 0.41194 1.99182 
0.33210 0.43040 1.99081 
0.31302 -0.49543 2.00756 
0.29372 -0.44583 2.00557 
0.34144 -0.39130 2.00335 
0.32540 -0.33185 2.00123 
0.36720 -0.27698 1.99925 
0.34787 -0.21806 1.99773 
0.38461 -0.16467 1.99627 
0.36166 -0.10637 1.99535 
0.39501 -0.05277 1.99382 
0.36776 0.00417 1.99333 
0.39825 0.05747 1.99282 
0.36854 0.11284 1.99260 
0.39553 0.16496 1.99185 
0.36418 0.21768 1.99187 
0.38922 0.26640 1.99128 
0.35869 0.31683 1.99139 
0.38298 0.35261 1.99114 
0.38220 0.39734 1.99074 
0.35697 -0.44908 2.00519 
0.40403 -0.39534 2.00272 
0.38593 -0.33584 2.00081 
0.42593 -0.27954 1.99896 
0.40524 -0.22254 1.99760 
0.44121 -0.16958 1.99588 
0.42087 -0.11101 1.99481 
0.45324 -0.05527 1.99352 
0.42587 0.00120 1.99280 
0.45616 0.05461 1.99243 
0.42742 0.11108 1.99224 
0.45087 0.16432 1.99189 
0.41995 0.21536 1.99159 
0.44312 0.26361 1.99142 
0.41170 0.31226 1.99107 
0.42715 0.35941 1.99053 
0.44745 -0.33723 2.00049 
0.48477 -0.27751 1.99879 
0.46052 -0.22454 1.99717 
0.48740 -0.17741 1.99607 
0.48449 -0.11650 1.99461 
0.50796 -0.05058 1.99360 
0.48028 -0.00094 1.99257 
0.51007 0.04633 1.99229 
0.48984 0.11151 1.99212 
0.49550 0.16873 1.99187 
0.47215 0.21325 1.99159 
0.49621 0.25977 1.99124 
0.46407 0.31207 1.99064 
0.51424 -0.21815 1.99734 
0.53145 -0.15718 1.99573 
0.54405 -0.09413 1.99460 
0.55697 -0.03278 1.99360 
0.52383 -0.00235 1.99278 
0.55789 0.02657 1.99256 
0.54703 0.08718 1.99215 
0.53664 0.14791 1.99215 
0.52207 0.20533 1.99194 
0.91878 0.39477 2.00000 
0.00000 0.00000 -1.50000 
CELLS 1023 3068
2 0 5
2 0 6
2 0 7
2 0 20
2 1 2
2 1 7
2 1 8
2 1 9
2 2 9
2 2 10
2 2 11
2 3 11
2 3 12
2 3 13
2 3 24
2 4 5
2 4 16
2 4 17
2 4 18
2 5 6
2 5 18
2 6 18
2 6 19
2 6 20
2 7 8
2 7 20
2 8 9
2 8 20
2 8 21
2 8 22
2 9 10
2 9 22
2 10 11
2 10 22
2 10 23
2 10 24
2 11 24
2 12 13
2 12 24
2 12 25
2 12 26
2 13 14
2 13 26
2 14 26
2 14 27
2 14 28
2 15 16
2 15 31
2 15 32
2 15 33
2 16 17
2 16 33
2 17 18
2 17 33
[...]
CELL_DATA 1023
SCALARS Strain double 
LOOKUP_TABLE default 
1512.20000
1166.84817
1412.02806
776.32771
1059.07216
1469.49121
472.75346
799.44501
491.12274
736.58860
897.30356
762.87376
520.77795
623.97166
633.71982
1261.84962
990.86232
850.31714
588.52157
490.34719
1055.60398
786.54118
931.18528
658.71032
1235.85536
774.88351
564.96820
703.74007
998.89370
920.34515
707.85104
625.60142
614.01316
487.39116
681.52006
805.48154
772.52533
398.43889
637.24166
482.46619
478.98442
617.37594
477.52420
529.52917
552.29336
645.76129
868.15338
787.72534
707.81177
674.87790
680.61774
759.04665
753.81845
776.61455
725.17811
597.88614
598.58042
797.18205
670.77158
428.47126
674.77247
910.40444
670.86912
640.14315
523.27555
903.46456
672.66297
426.12911
628.14953
690.54071
650.63466
562.22227
647.92378
640.82231
715.28918
696.10879
530.88144
578.76823
594.01120
615.17328
621.76834
567.44361
543.91816
540.76901
568.41544
604.80007
627.25515
546.65251
513.40596
466.39487
612.37268
676.94114
732.63960
556.80357
634.15092
680.40824
770.43229
762.62219
681.30495
637.62953
636.40959
690.71754
612.00396
692.49556
638.92925
628.44967
676.89459
652.08863
614.46496
504.47426
500.69576
697.43643
611.88245
378.18521
663.56869
685.06470
488.47696
484.83474
533.29553
617.20986
590.90664
600.82372
609.72079
590.27303
631.87940
628.36586
559.64845
578.92905
607.31193
618.53175
615.34731
589.27876
522.67758
552.49663
589.79497
605.96886
514.90342
556.07304
447.21454
585.08458
465.94675
812.38325
808.04461
840.04433
681.78587
629.01671
715.97574
735.49408
786.11463
649.27921
634.35086
632.25148
633.89922
596.07382
665.50992
574.42581
635.19475
650.45983
563.67504
578.26965
556.69036
498.20495
627.57562
586.51009
427.92877
627.99569
604.01712
501.09647
548.50081
542.31275
557.53331
590.61500
600.33645
590.39396
584.69860
609.08773
609.94002
571.22827
584.17020
610.55938
614.87336
618.62389
605.02561
546.30535
568.68239
611.83094
627.10976
651.55313
603.34939
595.55222
607.41677
608.72804
673.30807
616.69654
630.58589
497.49422
646.18465
607.85814
818.72757
844.15199
848.49997
950.24576
630.72630
640.54021
728.77345
732.54958
830.95113
570.87984
645.48134
637.68499
564.75395
595.79718
645.08405
514.86364
640.87762
635.06089
533.41259
571.88656
559.69489
529.08850
616.80916
594.24540
510.09934
598.64350
578.28553
546.87561
583.03355
572.22716
562.21806
591.64988
592.13328
593.85626
592.78809
604.00352
606.25144
580.90248
587.90734
614.80222
612.29988
620.22699
615.12831
577.23870
580.30878
622.49904
625.64974
637.50057
630.52982
484.18901
573.96999
640.78512
685.39564
503.24499
628.78974
621.81453
656.60370
1060.14218
911.29553
1216.78680
593.29698
727.77354
1008.17545
984.24712
733.83627
640.13894
649.83351
646.10480
733.58747
899.85770
425.07755
695.99206
657.11467
463.63922
560.66800
592.25904
486.82639
653.55380
631.98764
527.15809
553.18844
522.02979
555.88409
613.20934
600.75357
551.12494
581.36402
559.50205
578.18771
594.28991
589.99696
581.66520
589.73862
584.45423
604.63077
598.71003
604.55663
610.44539
585.48470
588.83900
619.22399
608.84826
616.24693
620.75407
579.35745
582.70205
622.50616
614.84463
633.51993
627.61655
619.21785
577.86238
627.29480
627.09881
628.08785
624.18831
679.56321
504.62947
473.94655
617.26235
510.41575
662.49623
809.97431
1473.09381
590.41142
451.86302
910.54750
916.95410
1025.69683
808.65302
484.19859
768.01534
568.51673
713.66133
1053.73124
417.60427
801.20773
702.01154
440.89913
480.02062
507.26920
549.58759
662.22666
628.30788
554.45244
524.85262
470.93131
591.81475
603.19746
599.26221
581.75253
569.74362
542.39941
601.72864
593.70832
596.33229
600.42297
588.15408
579.69186
614.67388
598.98147
603.32566
616.64186
587.01346
588.99080
622.73109
603.24826
607.15672
622.38881
576.21557
581.98295
619.78831
597.91549
605.29451
618.65435
551.47472
558.91870
599.39685
578.47578
659.41286
596.46206
613.29582
560.10628
535.14213
631.89004
672.72034
681.79949
1090.36869
1453.50529
835.96833
417.50718
1512.01214
934.36380
1445.70265
1281.13571
592.71148
1070.26270
503.15405
625.97355
1078.29521
684.56109
896.53421
749.76879
589.75833
372.94996
370.02562
751.21819
666.19973
615.78695
628.54593
497.07284
427.69295
635.23048
576.15164
588.57063
610.15637
562.68762
535.74757
619.28210
585.50606
594.57520
615.82878
587.94681
579.74362
623.14711
596.54089
600.28896
623.18421
587.57389
590.75744
625.31537
597.54620
597.15526
622.70506
569.58038
580.82642
615.74986
581.93373
576.33764
607.83788
525.34084
547.04561
584.03358
532.87796
475.99316
555.59951
429.59713
488.10632
436.92489
566.05690
690.32042
681.77342
1306.98723
1182.37557
480.38810
1400.53640
1323.13564
1047.72131
1368.95021
791.55853
1277.31635
773.02960
428.16790
781.30298
1285.11819
838.64189
752.95977
952.98953
416.41924
503.27890
792.65958
539.48029
554.26942
693.07240
496.66789
477.83441
653.88711
532.69708
568.17746
630.50849
564.75557
546.38851
627.99584
574.71145
589.22061
623.88402
589.80601
584.68841
627.15963
592.52645
596.49326
626.79826
589.65415
594.44741
626.41125
592.32715
587.56455
622.29956
567.32680
582.68264
614.00177
570.88982
556.06040
601.43013
510.92478
546.21237
579.15738
522.44309
493.33903
551.67342
505.76024
494.19311
549.26986
505.98883
562.73439
613.82132
561.76072
687.23437
1305.29858
463.96369
1180.41655
1451.24014
681.88043
1047.87345
1400.10461
790.28835
479.90975
1280.16915
1325.04264
780.35372
762.30950
837.72522
1282.15652
682.22842
429.47181
505.65061
954.13912
537.71282
751.97376
750.27430
419.05748
480.86486
694.61890
532.97092
554.84150
641.18141
503.42192
548.18835
634.22087
577.00375
571.13869
626.95750
568.80060
584.25218
627.87858
595.35643
594.25784
627.73325
590.52046
593.37543
628.15888
593.98033
600.34460
625.45291
589.00343
581.79804
621.86840
570.49969
588.59143
614.04608
566.57167
546.41204
600.23208
521.90403
553.87479
580.79733
508.77943
493.82191
550.34950
506.16076
491.29850
485.69724
503.08912
561.43656
612.48640
560.03248
687.97015
833.56241
1467.72949
1087.21385
1442.39771
1507.83385
596.16419
417.90302
804.94887
935.62401
1079.66882
500.46280
896.38021
1070.82899
415.68906
630.65745
369.11373
585.64542
663.74447
746.01096
548.63912
385.54133
438.51436
632.59163
580.43404
615.66687
606.93151
511.19329
543.48303
622.49409
592.89742
596.56226
619.78340
570.83367
582.75513
625.32733
603.21271
605.30953
624.48714
590.45885
591.42805
626.10428
600.41498
607.46768
622.90666
588.20438
580.08027
620.55677
580.36709
597.20536
614.72330
567.90378
545.05182
603.58000
529.11513
571.15906
593.61055
520.33009
426.60740
551.98810
435.25229
471.86422
530.16209
669.02538
562.37180
587.95410
1209.30910
805.43203
1022.21868
906.39288
488.61105
452.29943
723.30693
915.17523
1055.29871
560.57512
802.89542
773.52621
415.51586
718.92478
512.46355
436.70169
660.16678
700.61078
491.93693
498.95533
489.71614
565.89331
609.47823
629.94296
583.48001
544.83315
556.48099
607.45733
607.74400
613.48695
610.76269
580.73191
586.32287
619.57526
611.63847
615.07707
618.59765
592.74055
591.78368
621.98133
608.17135
614.73859
618.16050
588.02996
581.16978
618.19985
594.21380
607.35189
614.06681
573.31659
553.75452
610.67241
570.68522
594.65110
617.04970
541.13725
552.35405
589.56780
625.71343
650.91108
609.74291
602.68476
675.09031
585.47651
905.00162
1048.89830
977.40785
635.19258
713.39750
931.21203
1002.07076
904.10833
629.41891
697.27854
646.62511
550.82176
740.37604
605.70343
458.07895
651.78792
656.72091
520.73876
588.70729
548.91731
548.65601
623.46584
633.10057
577.79273
582.02893
577.53095
596.18627
618.63106
623.37992
602.89665
594.11892
592.65741
612.31000
619.15083
622.00692
610.63844
596.14151
592.61466
615.24650
615.34416
620.24616
608.66329
586.64566
582.31381
612.92802
608.37580
615.79886
607.15437
578.44373
571.85346
613.92308
608.31367
614.51240
621.18557
591.11863
461.57610
670.20537
502.32508
622.71720
486.18978
648.68887
837.72938
803.40310
618.98690
595.18245
813.98383
829.97799
827.70424
703.75256
642.13264
629.38673
617.02707
734.87210
665.52769
547.20998
637.78084
634.66533
562.73916
639.66720
602.15779
560.81024
628.18496
630.00819
580.00131
612.05954
599.92980
591.62315
625.43635
627.88359
596.81679
606.78173
600.06280
604.07316
623.89654
626.59339
601.48027
598.99253
591.54552
605.91642
619.15074
623.02128
596.88112
581.81528
578.46500
600.40337
619.61002
617.97613
590.24277
570.95032
583.95165
606.63522
617.53218
636.43303
628.78417
384.89750
571.82380
608.77450
545.69090
617.36411
488.13203
598.41774
789.86078
662.32706
698.27126
783.47851
769.90340
678.79574
623.97858
608.28820
626.44145
719.31464
685.18685
590.54747
629.01232
622.78618
582.85316
661.08113
633.35098
574.40032
628.66759
624.25408
580.26907
632.60304
617.48938
589.81065
629.05659
629.63059
590.86751
616.79195
607.59534
595.18318
625.96882
628.66328
590.89996
601.55649
589.55520
594.86930
618.43620
622.99444
579.78963
572.16362
564.83122
582.17221
618.07124
609.24453
564.11851
533.69303
578.52766
576.64191
595.83828
569.53872
630.85823
563.57180
569.03580
505.58004
599.19028
531.57986
638.18263
723.95332
632.39471
615.18947
597.60849
626.19614
710.45420
688.99396
605.58925
619.27065
616.83081
586.88976
663.34713
647.34867
574.46360
625.62773
613.58410
567.09296
646.72642
630.49292
593.00754
630.24642
636.35604
581.83397
620.77715
613.05820
580.89232
627.34204
625.84908
578.84148
609.33673
586.01512
588.02914
612.36851
625.05052
552.39122
559.04629
546.85034
557.16827
588.47129
594.81989
538.69672
509.70311
431.46705
531.05105
446.42331
494.22075
445.95443
587.18939
713.70909
621.27240
724.78214
689.87444
614.41701
605.52934
614.93194
587.68528
649.01848
639.41775
552.15847
619.10723
581.61695
467.51858
684.02106
643.71097
637.49092
626.55155
686.48279
548.24611
605.90301
612.98377
543.49251
632.73144
604.59333
544.39189
660.21805
580.77392
623.30114
595.69946
655.42925
447.50742
532.61413
534.25929
521.46847
578.15327
580.28677
531.35228
526.98326
495.23762
522.69343
599.34306
703.46175
581.76189
661.86856
541.67081
539.98882
608.97984
487.03846
483.69151
698.85689
620.38946
635.30128
567.38179
564.72168
520.36776
506.77623
557.78618
434.74001
681.42433
504.87029
516.43830
549.89873
574.00992
620.41537
591.92601
501.75862
460.08653
451.26679
522.71358
504.39021
612.92691
601.71582
632.75733
642.05419
625.97052
449.03191
592.67442
445.78643
614.83738
615.10648
591.36963
0.10000
