# vtk DataFile Version 3.0
Point representing Sub_cellular elem model
ASCII

DATASET UNSTRUCTURED_GRID
POINTS 364 float
-0.60406 -0.01613 2.02320 
-0.77078 -0.12190 2.08279 
-0.79236 0.01390 2.04923 
-0.77307 0.17417 2.01966 
-0.74284 -0.30858 1.96859 
-0.77742 -0.13374 1.97475 
-0.70101 -0.14054 1.97435 
-0.58070 -0.20870 2.08025 
-0.70600 -0.10318 2.05503 
-0.74229 -0.04514 2.04441 
-0.71905 0.05114 2.03212 
-0.75210 0.11229 2.02436 
-0.71225 0.22096 2.02484 
-0.74518 0.29011 2.01116 
-0.70482 0.36904 2.01280 
-0.64118 -0.48534 1.97552 
-0.67715 -0.40927 1.97890 
-0.65930 -0.33941 1.97395 
-0.70111 -0.25465 1.99314 
-0.62895 -0.20511 1.98772 
-0.62603 -0.13222 2.05024 
-0.61185 -0.05400 2.01275 
-0.66578 0.01278 2.03684 
-0.63843 0.08435 2.00003 
-0.68511 0.14472 2.01237 
-0.62833 0.23105 1.99642 
-0.66989 0.29808 2.00148 
-0.62556 0.37422 2.00159 
-0.66415 0.43080 2.00167 
-0.61451 0.52032 2.00427 
-0.55047 -0.60650 1.98388 
-0.59572 -0.54241 1.98639 
-0.56289 -0.48786 1.98890 
-0.61284 -0.41471 1.99342 
-0.56475 -0.34546 1.99687 
-0.60354 -0.27652 2.00688 
-0.52640 -0.20328 2.01700 
-0.55224 -0.13535 2.01388 
-0.51664 -0.05075 2.02030 
-0.58101 0.01730 2.02567 
-0.54267 0.08770 2.00501 
-0.58954 0.15408 2.02111 
-0.54363 0.22480 1.99488 
-0.58371 0.30347 2.01683 
-0.54269 0.37381 1.98874 
-0.58702 0.45042 2.01218 
-0.53897 0.52094 1.98884 
-0.48126 -0.63100 1.99132 
-0.52313 -0.56580 1.97780 
-0.48061 -0.49573 2.00603 
-0.52284 -0.42017 1.98118 
-0.47231 -0.35175 2.01421 
-0.50783 -0.27692 1.98842 
-0.45746 -0.20721 2.02156 
-0.48559 -0.12961 1.99624 
-0.45206 -0.05259 2.02418 
-0.49316 0.02262 1.99206 
-0.45553 0.09245 2.02099 
-0.50060 0.16471 1.99210 
-0.45707 0.23569 2.01514 
-0.49618 0.30913 1.99477 
-0.45526 0.38524 2.01233 
-0.49743 0.44920 2.00321 
-0.45367 0.54223 2.00780 
-0.52576 0.59520 2.00205 
-0.47367 0.62782 2.00092 
-0.43778 -0.68270 1.98543 
-0.40543 -0.64598 1.97864 
-0.43712 -0.56664 1.99209 
-0.39161 -0.49599 1.98441 
-0.43071 -0.42108 1.99960 
-0.38200 -0.34885 1.99027 
-0.41927 -0.27653 2.00523 
-0.37056 -0.20179 1.99338 
-0.40632 -0.12785 2.01083 
-0.36607 -0.05164 1.99406 
-0.41079 0.02004 2.00312 
-0.36826 0.09446 1.99231 
-0.41340 0.16081 1.99230 
-0.37042 0.23735 1.99310 
-0.41598 0.30557 1.98500 
-0.37188 0.38188 1.99809 
-0.41379 0.45723 1.98419 
-0.37082 0.53317 2.00472 
-0.40364 0.61347 1.98636 
-0.37907 0.68320 1.99961 
-0.33615 -0.74370 1.98406 
-0.37115 -0.70463 1.98890 
-0.31841 -0.65246 1.98961 
-0.35760 -0.57753 2.00662 
-0.30583 -0.49717 1.99838 
-0.34494 -0.42536 2.01664 
-0.29640 -0.34826 2.00364 
-0.33669 -0.27789 2.02261 
-0.29066 -0.20122 2.00656 
-0.33165 -0.12856 2.02550 
-0.28886 -0.05423 2.00290 
-0.32917 0.02022 2.02296 
-0.28759 0.09008 1.99537 
-0.32916 0.16532 2.01913 
-0.28856 0.23365 1.98690 
-0.33065 0.31058 2.01335 
-0.29088 0.38009 1.98148 
-0.32745 0.46099 2.00909 
-0.28578 0.53428 1.98165 
-0.31799 0.62048 2.00349 
-0.26324 0.69457 1.98529 
-0.33339 0.70810 1.99824 
-0.23148 -0.80096 1.98600 
-0.26686 -0.72947 1.97817 
-0.23157 -0.65484 2.00465 
-0.26908 -0.57296 1.98357 
-0.22331 -0.49977 2.01522 
-0.25788 -0.42014 1.98946 
-0.21377 -0.34889 2.02210 
-0.25011 -0.27214 1.99340 
-0.20980 -0.20015 2.02635 
-0.24595 -0.12454 1.99558 
-0.20726 -0.05238 2.02552 
-0.24391 0.02217 1.99518 
-0.20458 0.09338 2.02394 
-0.24416 0.16550 1.99599 
-0.20505 0.23762 2.01795 
-0.24683 0.30777 1.99695 
-0.20689 0.38214 2.01253 
-0.24976 0.45294 2.00170 
-0.20058 0.53187 2.00582 
-0.24427 0.60899 2.00707 
-0.18500 0.69759 1.99588 
-0.23433 0.76246 1.99747 
-0.11513 -0.82364 1.98550 
-0.18006 -0.73629 1.99102 
-0.14572 -0.64913 1.98370 
-0.18421 -0.57159 1.99828 
-0.13679 -0.49141 1.98904 
-0.17494 -0.42017 2.00187 
-0.12870 -0.34162 1.99186 
-0.17008 -0.27202 2.00307 
-0.12540 -0.19410 1.99504 
-0.16836 -0.12586 2.00176 
-0.12342 -0.04810 1.99583 
-0.16598 0.01876 1.99671 
-0.12134 0.09575 1.99646 
-0.16390 0.16225 1.99075 
-0.12169 0.23705 1.99894 
-0.16504 0.30552 1.98431 
-0.12465 0.37799 2.00213 
-0.16662 0.45144 1.98073 
-0.12434 0.52019 2.00661 
-0.15702 0.60471 1.98139 
-0.10667 0.66806 2.01079 
-0.15801 0.76814 1.99662 
0.05259 -0.76528 2.02826 
-0.09944 -0.74433 2.00992 
-0.06852 -0.61941 2.00866 
-0.10016 -0.57045 2.01576 
-0.05168 -0.48553 2.00192 
-0.09187 -0.41925 2.02001 
-0.04903 -0.34144 2.00064 
-0.08798 -0.26979 2.02385 
-0.04756 -0.19502 1.99891 
-0.08576 -0.12205 2.02453 
-0.04506 -0.05037 1.99563 
-0.08272 0.02354 2.02259 
-0.04178 0.09323 1.99087 
-0.08059 0.16763 2.02122 
-0.04037 0.23637 1.98738 
-0.08215 0.31114 2.01708 
-0.04210 0.37970 1.98306 
-0.08331 0.45599 2.00977 
-0.04092 0.52675 1.98048 
-0.07260 0.59837 1.99817 
-0.02489 0.68374 1.98264 
-0.07705 0.74796 1.98841 
-0.05145 0.79976 1.99206 
-0.01388 -0.59879 2.08701 
-0.08281 -0.76686 2.04034 
-0.01864 -0.68571 2.00321 
0.03620 -0.62726 2.01714 
-0.01218 -0.55258 1.98647 
0.03400 -0.48558 2.01648 
-0.00650 -0.40881 1.98985 
0.03403 -0.33827 2.02164 
-0.00404 -0.26225 1.99368 
0.03553 -0.19046 2.02339 
-0.00270 -0.11643 1.99539 
0.03843 -0.04485 2.02317 
-0.00029 0.02728 1.99655 
0.04169 0.09930 2.02014 
0.00173 0.16937 1.99816 
0.04301 0.24324 2.01784 
0.00086 0.31037 2.00107 
0.04100 0.38756 2.01319 
-0.00025 0.45115 2.00346 
0.04223 0.53180 2.00459 
0.00539 0.59402 2.00741 
0.04728 0.67539 1.99354 
0.01995 0.75593 2.00352 
0.07115 0.80811 1.98966 
0.07509 -0.81537 1.99612 
0.07189 -0.73764 2.00898 
0.11729 -0.64522 1.98192 
0.07829 -0.55953 1.99890 
0.11999 -0.48935 1.98727 
0.07428 -0.41133 1.99712 
0.11832 -0.33655 1.99255 
0.07338 -0.26402 1.99652 
0.11852 -0.18784 1.99490 
0.07570 -0.11862 1.99396 
0.12069 -0.04239 1.99647 
0.07947 0.02515 1.99045 
0.12371 0.10126 1.99780 
0.08269 0.16890 1.98724 
0.12534 0.24454 1.99870 
0.08360 0.31293 1.98444 
0.12531 0.38746 2.00003 
0.08327 0.45699 1.97876 
0.13061 0.52568 2.00129 
0.08756 0.60242 1.97797 
0.13021 0.67091 2.00735 
0.11437 0.75472 1.98456 
0.19386 -0.79623 1.99451 
0.13611 -0.74038 1.99995 
0.20135 -0.64155 1.99905 
0.16265 -0.57238 2.00896 
0.19743 -0.49166 1.99470 
0.15742 -0.41574 2.01779 
0.19430 -0.33885 1.99495 
0.15704 -0.26345 2.02171 
0.19663 -0.19043 1.99223 
0.15965 -0.11571 2.02085 
0.20057 -0.04468 1.99034 
0.16329 0.02990 2.02084 
0.20438 0.10037 1.98753 
0.16625 0.17539 2.01808 
0.20730 0.24664 1.98470 
0.16683 0.32222 2.01385 
0.20863 0.39549 1.98207 
0.16526 0.47160 2.00864 
0.20935 0.54870 1.97971 
0.16825 0.61787 1.99819 
0.19533 0.72140 1.98382 
0.17044 0.80929 1.99491 
0.29699 -0.73527 1.99224 
0.22510 -0.72318 1.98101 
0.28533 -0.65642 1.99987 
0.24673 -0.56856 1.98118 
0.27997 -0.49334 2.01266 
0.24090 -0.41151 1.98888 
0.27898 -0.33780 2.01796 
0.23968 -0.26049 1.99355 
0.28176 -0.18827 2.01881 
0.24189 -0.11395 1.99582 
0.28558 -0.04214 2.01919 
0.24512 0.03035 1.99756 
0.28918 0.10345 2.01642 
0.24797 0.17518 1.99777 
0.29149 0.25030 2.01474 
0.24913 0.32195 1.99705 
0.29180 0.39942 2.01169 
0.24929 0.47153 1.99598 
0.29002 0.55012 2.00864 
0.23823 0.61927 1.99125 
0.27376 0.69390 2.00415 
0.24585 0.76116 1.98890 
0.35093 -0.68921 1.99409 
0.37278 -0.64273 1.98321 
0.32138 -0.56879 1.99455 
0.36464 -0.48734 1.98463 
0.31572 -0.41419 1.99225 
0.36187 -0.33517 1.98994 
0.31790 -0.26386 1.98971 
0.36409 -0.18768 1.99471 
0.32277 -0.11692 1.98865 
0.36772 -0.04322 1.99704 
0.32676 0.02850 1.98668 
0.37097 0.10138 1.99695 
0.33036 0.17500 1.98474 
0.37326 0.24812 1.99655 
0.33273 0.32387 1.98274 
0.37473 0.39725 1.99390 
0.33494 0.47533 1.98283 
0.37488 0.54898 1.98997 
0.33335 0.63233 1.98329 
0.39290 0.69333 1.99019 
0.33978 0.71603 1.99036 
0.41821 -0.69160 1.99393 
0.45090 -0.62786 1.99071 
0.40299 -0.56770 2.00773 
0.44155 -0.48956 1.98970 
0.40222 -0.41410 2.01288 
0.44109 -0.34082 1.98574 
0.40503 -0.26370 2.01426 
0.44572 -0.19265 1.98408 
0.41018 -0.11657 2.01559 
0.45146 -0.04572 1.98321 
0.41368 0.02876 2.01446 
0.45527 0.09971 1.98221 
0.41677 0.17465 2.01285 
0.45749 0.24862 1.98251 
0.41837 0.32354 2.01139 
0.46102 0.39969 1.98294 
0.41954 0.47437 2.00991 
0.46615 0.55474 1.98433 
0.41779 0.62487 2.00521 
0.48820 0.64220 1.99046 
0.52677 -0.62018 1.99455 
0.48732 -0.56209 1.98593 
0.53031 -0.49140 2.00582 
0.48664 -0.41481 1.98737 
0.53046 -0.34475 2.00908 
0.48743 -0.26633 1.99225 
0.53545 -0.19561 2.00838 
0.49125 -0.11959 1.99603 
0.54104 -0.04747 2.00746 
0.49718 0.02558 1.99644 
0.54406 0.09682 2.00820 
0.49754 0.17190 1.99788 
0.54569 0.24581 2.00799 
0.50053 0.32079 1.99550 
0.54897 0.39523 2.00830 
0.50376 0.46719 1.98974 
0.55075 0.53952 2.00632 
0.53683 0.61326 1.99075 
0.55556 -0.55667 1.98907 
0.59597 -0.47026 1.98921 
0.57126 -0.41880 1.98453 
0.61224 -0.34855 1.99030 
0.57075 -0.27506 1.98046 
0.61161 -0.20139 1.99636 
0.57607 -0.12378 1.97865 
0.62180 -0.05322 1.99774 
0.58601 0.02332 1.97872 
0.62574 0.09690 1.99938 
0.58372 0.17064 1.97992 
0.62259 0.24575 1.99994 
0.58723 0.32287 1.98107 
0.63226 0.39323 1.99442 
0.59841 0.46812 1.98461 
0.62683 0.53958 1.99070 
0.65016 -0.41901 1.99503 
0.68909 -0.35755 1.98618 
0.66054 -0.28371 2.00137 
0.69552 -0.20692 1.97827 
0.66861 -0.12479 2.00121 
0.71340 -0.05903 1.98050 
0.66854 0.02052 1.99614 
0.71773 0.09747 1.98129 
0.67540 0.16512 2.00325 
0.70784 0.24565 1.98125 
0.67592 0.32437 2.00408 
0.71280 0.39486 1.98932 
0.67781 0.45929 1.99758 
0.73769 -0.27100 1.99227 
0.75123 -0.15661 1.99406 
0.75024 -0.11308 1.99185 
0.78496 -0.03675 1.99067 
0.73545 0.01840 2.00322 
0.78801 0.07071 1.99095 
0.75733 0.14900 1.99384 
0.76074 0.19190 1.99684 
0.75294 0.30692 1.99647 
0.91878 0.39477 2.00000 
0.00000 0.00000 -1.50000 
CELLS 1023 3068
2 0 5
2 0 6
2 0 7
2 0 20
2 1 2
2 1 7
2 1 8
2 1 9
2 2 9
2 2 10
2 2 11
2 3 11
2 3 12
2 3 13
2 3 24
2 4 5
2 4 16
2 4 17
2 4 18
2 5 6
2 5 18
2 6 18
2 6 19
2 6 20
2 7 8
2 7 20
2 8 9
2 8 20
2 8 21
2 8 22
2 9 10
2 9 22
2 10 11
2 10 22
2 10 23
2 10 24
2 11 24
2 12 13
2 12 24
2 12 25
2 12 26
2 13 14
2 13 26
2 14 26
2 14 27
2 14 28
2 15 16
2 15 31
2 15 32
2 15 33
2 16 17
2 16 33
2 17 18
2 17 33
2 17 34
[...]
CELL_DATA 1023
SCALARS Strain double 
LOOKUP_TABLE default 
2149.17482
1650.16483
2021.01811
1211.10578
1414.41713
2088.75066
728.19998
903.31961
774.62101
838.89891
1090.78107
654.02604
768.15358
1194.53706
929.45336
1782.38098
1205.63215
891.00510
723.75833
766.20461
1440.61260
1155.42559
975.67961
1069.03467
1656.41958
937.31637
691.73034
851.13059
1142.29818
1239.82027
996.97709
961.51920
698.44294
657.07086
928.08185
1013.82081
752.86475
777.06775
817.80968
890.68005
909.31409
885.69446
762.29387
797.99951
801.10674
746.79781
841.12768
736.69027
793.69465
780.77012
721.75066
660.48523
963.33655
905.03285
973.82600
901.73222
875.93818
1008.29192
959.72423
780.86264
1065.59631
1068.30678
877.90999
822.23751
890.64065
1007.55407
954.55865
786.55062
848.94788
855.22375
772.05200
918.14134
958.46781
876.38942
1044.56668
963.30693
789.22891
895.60252
848.49836
873.82626
880.11859
876.05368
683.81633
835.03661
837.64050
859.41556
1022.97140
801.71280
754.30173
770.07101
1160.40680
783.90402
736.95675
492.97570
636.21090
766.46499
885.92902
880.97039
843.11804
789.24489
842.87302
908.95033
796.32472
869.91215
941.62900
893.84036
1067.46250
973.69667
726.41044
810.46152
691.02541
866.44309
919.14085
690.86194
937.25939
880.03218
646.29421
819.41939
826.77493
941.12718
827.40980
826.94936
886.18142
886.00669
881.96747
940.50875
908.81391
738.56985
894.60889
966.61637
860.31434
903.37929
914.67524
797.89192
911.76379
890.13962
883.70200
899.49918
840.35436
898.33924
764.81381
785.56246
677.09657
782.31293
779.49094
865.99486
870.97414
899.52416
842.41873
914.84470
899.18918
911.45852
938.61799
866.56734
820.59322
933.72734
923.76444
920.64990
900.45195
862.40852
807.11471
914.17065
949.26431
884.27827
805.22631
914.18976
889.75166
910.11992
860.38950
843.36323
830.45361
898.32751
868.75141
917.88851
851.75771
862.90213
871.91914
855.67737
895.37395
893.23559
863.86677
880.77287
807.75720
770.51935
928.35380
845.59220
876.16513
1028.12238
860.49394
895.43244
880.66757
967.18284
833.08122
895.59756
613.73334
728.51247
1095.21756
493.11727
701.30644
863.87617
686.04541
878.44947
879.62168
842.86204
814.62685
857.53499
909.90678
868.15065
904.84995
875.15926
874.46477
826.19298
889.05996
865.34377
900.89913
898.97209
842.99052
838.69285
881.69783
808.81148
888.29690
877.00331
759.95816
848.65808
898.40582
776.55931
856.92363
862.96497
838.98405
801.57090
892.19783
807.43515
851.62004
876.79112
884.19535
823.28326
868.97950
820.81048
856.57712
890.05469
899.53088
872.35647
836.62637
826.00977
912.99636
895.42035
898.45172
885.78379
842.16054
880.20187
1019.55981
750.03774
875.24139
875.33681
519.43158
525.74112
930.14525
1192.24878
708.86900
740.90408
861.59708
932.78949
880.64633
936.56890
958.47933
914.87417
836.83198
854.20484
841.66287
910.69233
919.25903
912.55782
831.76989
826.80900
845.74185
895.72058
907.48373
914.48977
854.52429
826.48314
831.52705
893.45336
885.89220
907.64422
869.04592
825.95819
846.02599
888.79317
857.57313
895.92172
890.82748
806.44748
877.48473
869.31884
856.67690
879.96018
914.97484
817.35348
890.85711
855.53837
860.93657
853.63440
928.76254
859.80582
894.68970
859.62692
885.54421
783.47064
944.80232
910.82962
884.96980
890.70990
938.05661
890.19490
745.94311
725.03942
902.21106
789.16146
746.91622
1129.01849
800.41533
1184.48731
826.73921
865.94020
879.01616
924.03582
972.23401
884.52970
958.94030
918.43488
860.43346
904.44736
834.05735
906.76805
939.92788
898.27629
837.63751
895.38534
835.50199
904.77804
903.41837
887.52605
805.19518
891.73820
852.56965
901.17624
884.43047
870.73155
777.39382
883.45749
863.61473
889.45265
870.52906
861.81104
779.22244
867.86376
882.17328
875.85335
864.91227
848.31104
803.93655
842.00695
899.76164
853.98072
855.81136
857.45439
826.84021
833.76525
916.53103
828.97228
861.25822
929.92160
856.62535
885.49330
907.44280
770.32048
882.10356
1070.81626
909.45860
814.09590
979.82501
849.36129
754.34474
1192.54540
764.33094
1088.86197
1825.60080
843.54673
938.70964
830.97665
876.86783
1089.55969
863.03429
963.05376
935.11899
857.60762
817.21282
910.20305
861.73968
903.58572
915.97195
849.25438
816.42908
903.16531
800.45358
884.53078
900.77923
846.18938
808.18735
891.14878
778.49653
872.67033
899.08366
856.73778
791.65137
877.11166
782.86857
865.33198
888.90557
872.23242
790.60404
858.55883
797.02340
861.64781
861.81743
887.79124
822.44365
836.02223
820.39763
858.19392
847.59489
892.11725
871.61514
805.05782
846.42820
885.12948
846.55624
882.39067
939.62824
761.47320
875.62569
940.35581
860.02531
862.07537
784.81572
877.99727
880.01154
837.38632
1111.45869
1544.66998
1885.52894
1095.97593
1285.96290
999.50426
586.31586
830.43897
1052.55932
900.77821
986.60200
943.34232
794.88962
792.47357
868.14090
897.44545
908.11596
910.37319
846.90754
802.99058
856.35069
912.41287
884.77550
894.11652
861.52791
801.59473
866.41066
904.61932
872.44165
881.05599
871.25452
783.73813
879.88600
895.42635
867.22348
864.29680
891.35126
780.21470
885.60359
879.01189
864.31734
854.06496
905.58320
797.60082
889.38764
857.09135
862.80806
844.47109
906.35282
834.20773
886.34755
851.75807
874.26782
833.39826
801.96371
887.60746
866.19098
858.91849
989.22430
785.55731
828.32663
977.79909
733.65524
874.07949
578.01769
983.95597
844.67972
1228.13013
1874.50205
1207.31521
1098.09199
1708.99569
1604.30377
812.53175
1044.32388
940.15610
1161.95903
901.09000
817.01685
866.35737
914.81178
906.89617
878.77310
907.93850
865.51553
872.43288
810.47846
894.00263
868.40992
890.86385
876.13186
870.98215
773.88037
877.95944
868.75861
876.81137
873.04783
870.01112
783.35925
859.81124
875.59593
864.21871
873.96113
865.36313
799.18446
835.05419
882.56718
849.27435
871.20259
867.79582
815.91398
809.24353
895.45673
844.32126
871.92469
877.42212
843.30779
763.19295
905.10100
852.35691
881.76721
910.61614
871.92106
722.66277
890.46528
885.46275
879.39853
924.70809
875.92650
855.28993
846.93539
840.87428
1041.76114
743.12388
962.09343
687.79062
993.35830
787.46018
1202.14208
966.55729
1063.62285
648.06336
955.62904
985.62264
857.69561
898.66058
823.65178
858.21520
908.56582
957.39083
777.32785
879.40259
868.08589
856.86571
853.20814
917.51007
759.54171
876.16005
884.65617
872.76012
813.03987
888.87125
780.95047
868.88611
884.56154
880.99781
792.50146
864.35780
800.44172
872.70485
882.32721
891.80051
797.12217
846.87737
812.22705
877.52171
874.87001
892.08206
812.83367
825.47668
830.69027
892.54400
867.22353
886.62699
838.92998
784.59655
855.11432
934.37949
863.13818
883.85222
909.22933
645.51132
847.35086
995.22906
857.64859
845.00321
881.85119
658.14291
855.90856
874.49664
788.31512
804.21966
1197.24239
804.83512
1183.23459
924.89349
797.77062
868.07708
851.87591
876.82696
889.49011
885.32844
887.73464
922.36555
843.80384
912.58827
881.77635
883.40306
881.64169
864.35381
876.54433
904.60163
880.37375
872.59088
880.41646
821.45218
891.04683
888.37334
873.68559
858.78942
886.80930
807.45369
897.12337
874.56685
880.14259
849.79666
894.25921
815.30321
895.40609
870.86857
886.34840
841.00013
904.47293
831.51482
893.64890
869.35213
900.50852
839.00124
914.39009
851.82464
882.71813
872.39930
933.07801
848.80191
824.56005
882.99265
856.12719
770.20937
1078.71785
702.33715
919.21474
1109.16242
854.68909
643.90115
895.59816
736.62849
799.66249
708.56266
917.69903
976.72914
734.68564
899.71140
948.10407
879.54273
757.41637
936.44551
878.44666
892.96137
891.17957
878.20915
748.49933
899.86432
884.87787
874.44763
880.98632
872.20038
782.82444
873.18386
886.02048
856.92717
875.52356
871.47441
811.58696
856.91013
888.29468
849.78075
878.95601
873.12819
822.88067
847.00034
888.67080
840.08296
883.23128
883.57313
833.20663
849.95068
897.97186
837.01596
901.11434
895.45184
847.38228
850.67142
905.73642
847.47849
918.60804
893.17997
866.32633
880.37076
908.75799
867.91033
962.26228
835.54460
962.47208
743.01409
880.81473
708.76310
1041.20233
523.92334
672.19070
906.64098
674.80980
797.83545
844.22338
926.60135
825.79852
882.27172
918.89710
770.07031
869.31360
914.38434
888.27846
836.79069
914.63047
794.24510
868.62895
891.36988
904.24862
820.61939
884.26860
823.64533
871.76477
866.29203
913.67377
831.37894
866.58587
848.11062
870.65148
857.58144
911.48368
848.57805
859.45889
854.95418
877.53894
854.98133
907.63808
869.13826
868.27979
852.87821
890.22092
851.82753
902.05218
882.38214
873.25181
869.15060
905.18828
839.85543
887.33085
932.58998
891.11281
915.29815
884.05040
854.25583
841.37259
874.56690
576.63812
742.77884
1080.53894
716.06088
786.67721
762.51723
752.25422
888.81661
871.78586
880.94603
857.48625
901.29606
872.31572
871.68461
880.91316
896.87566
867.98804
923.48493
878.74965
871.57224
852.32682
895.93187
849.61652
929.17109
868.14468
880.57790
833.56335
890.71476
847.81825
927.26593
856.27694
882.35539
853.78833
895.53137
862.30945
924.52345
850.03925
896.21564
820.86860
892.11893
878.01134
917.47920
849.25893
917.01433
836.29828
894.86516
890.33118
915.45089
800.82645
962.63651
868.04371
876.09529
902.97125
953.42957
886.22902
918.85138
738.86818
564.93689
706.48114
698.48714
850.02093
684.28375
899.73394
718.65426
708.47394
859.27523
853.33018
846.60078
909.13220
879.41248
838.98741
853.29897
868.93508
845.01570
886.97521
912.15847
772.12781
876.05618
882.76536
865.75369
858.20450
886.65726
814.47892
885.50780
859.91751
905.06080
888.21602
895.16415
820.58340
883.40019
886.94045
879.40871
883.09879
886.97019
772.18868
914.92127
896.32868
878.17507
868.86458
861.62336
843.54584
911.00127
877.27904
946.87844
765.41811
884.48663
775.69293
1162.10501
952.91178
571.78206
747.15307
814.34224
794.92672
848.56828
800.55842
773.83323
815.02141
856.31754
924.97415
870.74163
958.01668
859.19010
955.07252
861.28765
951.57212
865.08747
854.81951
932.81769
872.21008
860.41857
842.98232
869.73479
875.13741
936.54735
843.68419
868.05664
946.68930
868.15498
963.37685
871.81435
950.02253
844.90152
915.40828
826.64852
820.06396
806.18102
802.04033
770.46739
808.35841
952.58646
731.86743
805.07046
993.49686
873.89844
786.13159
893.21236
778.75588
766.02948
821.10998
887.27535
829.02030
925.59496
662.87299
755.35062
835.50004
924.27106
672.14428
826.73340
838.46217
757.17279
660.90497
894.62427
839.29191
895.70228
878.61240
769.07111
774.87400
808.09089
792.37936
736.76379
968.36311
1150.96577
435.05977
837.53904
750.68179
1074.07927
750.65601
840.36979
430.40265
1151.83230
0.10000
