# vtk DataFile Version 3.0
Point representing Sub_cellular elem model
ASCII

DATASET UNSTRUCTURED_GRID
POINTS 666 float
-0.00133 1.73698 0.97988 
0.00351 1.74113 -1.17156 
1.74239 1.07542 -0.09065 
1.74131 -1.07549 -0.08753 
0.00349 -1.74262 -1.16811 
-0.00017 -1.73238 0.98252 
1.07160 0.00401 1.67043 
-1.06747 0.00176 1.65935 
1.08178 -0.00141 -1.83149 
-1.07161 -0.00143 -1.83676 
-1.73873 1.07492 -0.09713 
-1.73912 -1.07407 -0.09510 
0.00107 2.05122 -0.09599 
1.02471 1.65835 0.54027 
0.63153 1.02689 1.57171 
-0.63133 1.02223 1.57453 
-1.02449 1.65712 0.53735 
1.02943 1.66028 -0.72734 
0.63945 1.02520 -1.75297 
-0.62976 1.02520 -1.75603 
-1.02410 1.65990 -0.73158 
2.05282 -0.00045 -0.08844 
1.65609 0.63329 0.93558 
1.66494 0.63351 -1.11639 
1.02899 -1.66099 -0.72357 
1.02402 -1.65531 0.54533 
1.65455 -0.63115 0.93922 
1.66475 -0.63541 -1.11494 
0.00078 -2.05027 -0.09179 
0.63953 -1.02785 -1.75093 
-0.62964 -1.02784 -1.75404 
-1.02427 -1.66052 -0.72845 
0.63148 -1.01447 1.58194 
-0.63201 -1.01964 1.56720 
-1.02489 -1.65468 0.53957 
0.16688 0.36949 2.32480 
-1.65535 0.63327 0.93113 
-1.65571 -0.62908 0.93189 
0.00583 -0.00167 -2.14472 
-1.65774 0.63354 -1.12374 
-1.65775 -0.63501 -1.12251 
-2.04941 0.00047 -0.09647 
-0.00024 1.96818 0.47499 
0.52151 1.76796 0.79924 
0.32053 1.44467 1.32374 
-0.32425 1.44386 1.32359 
-0.52315 1.76715 0.79797 
0.00237 1.97115 -0.66707 
0.52693 1.77128 -0.98915 
0.32802 1.44729 -1.51235 
-0.31945 1.44728 -1.51386 
-0.52068 1.77114 -0.99142 
1.44758 1.41712 0.23136 
1.45034 1.41783 -0.41532 
1.97210 0.57061 -0.08945 
1.76966 0.89370 0.43283 
1.77452 0.89429 -0.61376 
1.97139 -0.57124 -0.08769 
1.44950 -1.41815 -0.41170 
1.44629 -1.41576 0.23572 
1.76826 -0.89278 0.43612 
1.77394 -0.89545 -0.61144 
0.52677 -1.77243 -0.98546 
0.00218 -1.97158 -0.66310 
0.32807 -1.44947 -1.50947 
-0.31936 -1.44944 -1.51105 
-0.52073 -1.77227 -0.98800 
0.52198 -1.76386 0.80344 
-0.00022 -1.96554 0.47887 
0.32368 -1.43808 1.32634 
-0.32186 -1.43862 1.32267 
-0.52275 -1.76371 0.80011 
0.89920 0.52804 1.68974 
1.41419 0.32372 1.36035 
1.41264 -0.31984 1.36390 
0.89487 -0.51785 1.69993 
0.56541 0.00937 1.94307 
-0.89383 0.52539 1.68586 
-0.89389 -0.52022 1.68434 
-0.55796 -0.00091 1.92615 
-1.41240 0.32371 1.35538 
-1.41222 -0.31862 1.35559 
0.90038 0.52215 -1.86249 
1.42349 0.32241 -1.53795 
1.42346 -0.32484 -1.53728 
0.90042 -0.52501 -1.86146 
0.57714 -0.00160 -2.06232 
-0.89013 0.52214 -1.86688 
-0.89005 -0.52503 -1.86586 
-0.56588 -0.00162 -2.06520 
-1.41463 0.32244 -1.54463 
-1.41460 -0.32475 -1.54400 
-1.44542 1.41611 0.22649 
-1.44584 1.41725 -0.42098 
-1.76771 0.89330 0.42706 
-1.76905 0.89414 -0.62097 
-1.96835 0.57073 -0.09689 
-1.44616 -1.41720 -0.41832 
-1.44598 -1.41446 0.22893 
-1.76822 -0.89090 0.42860 
-1.76923 -0.89452 -0.61925 
-1.96859 -0.56982 -0.09582 
0.55646 1.94919 0.21048 
-0.55551 1.94850 0.20861 
0.55837 1.95059 -0.40014 
-0.55470 1.95019 -0.40233 
0.89648 1.39211 1.11160 
1.05187 1.76136 -0.09342 
1.39140 1.20406 0.80761 
-0.00311 1.05227 1.67633 
1.20197 0.90001 1.30274 
0.31321 0.56280 1.89273 
-0.89792 1.39046 1.11063 
-0.29520 0.54518 1.90844 
-1.20147 0.89861 1.30065 
-1.04909 1.76049 -0.09725 
-1.39105 1.20298 0.80410 
0.90474 1.39412 -1.29857 
1.39871 1.20535 -0.99180 
0.00508 1.04960 -1.85609 
1.21080 0.89941 -1.48588 
0.31117 0.55491 -2.04325 
-0.89705 1.39405 -1.30264 
-0.30008 0.55491 -2.04478 
-1.20223 0.89941 -1.49149 
-1.39211 1.20517 -0.99782 
1.94842 0.30498 0.46710 
1.95403 0.30480 -0.64555 
1.94781 -0.30492 0.46831 
1.95381 -0.30628 -0.64475 
1.75692 0.00058 0.96193 
1.76661 -0.00101 -1.13991 
1.05108 -1.76046 -0.08894 
1.39837 -1.20683 -0.98905 
0.55796 -1.95038 -0.39585 
0.90465 -1.39598 -1.29565 
1.38990 -1.20069 0.81292 
0.55606 -1.94725 0.21503 
0.89656 -1.38584 1.11780 
1.19989 -0.89370 1.31014 
1.21075 -0.90170 -1.48400 
-0.55494 -1.95008 -0.39860 
-0.55574 -1.94691 0.21208 
0.00520 -1.05241 -1.85404 
0.31125 -0.55807 -2.04217 
-0.89701 -1.39581 -1.29996 
-0.29999 -0.55809 -2.04370 
-1.20217 -0.90158 -1.48974 
-1.04948 -1.75973 -0.09410 
-1.39217 -1.20635 -0.99551 
0.00412 -1.04632 1.67441 
0.30210 -0.53809 1.91681 
-0.89808 -1.38639 1.10983 
-0.30460 -0.55653 1.88913 
-1.20184 -0.89333 1.29984 
-1.39169 -1.19941 0.80536 
-1.75666 0.00210 0.95616 
-1.94674 0.30576 0.46053 
-1.94695 -0.30316 0.46106 
-1.75933 -0.00076 -1.14782 
-1.94845 0.30511 -0.65369 
-1.94851 -0.30556 -0.65310 
-0.00083 1.86889 0.73848 
0.25922 1.76917 0.90015 
0.15914 1.60772 1.16145 
-0.16245 1.60745 1.16118 
-0.26150 1.76876 0.89954 
0.00297 1.87278 -0.93052 
0.26446 1.77305 -1.09107 
0.16530 1.61154 -1.35193 
-0.15746 1.61153 -1.35266 
-0.25779 1.77300 -1.09222 
1.61230 1.25625 0.06996 
1.61375 1.25653 -0.25247 
1.87380 0.83417 -0.09003 
1.77293 0.99524 0.17037 
1.77536 0.99560 -0.35138 
1.87286 -0.83453 -0.08752 
1.61275 -1.25672 -0.24905 
1.61104 -1.25567 0.07370 
1.77168 -0.99483 0.17355 
1.77453 -0.99627 -0.34865 
0.26439 -1.77439 -1.08748 
0.00287 -1.87377 -0.92678 
0.16533 -1.61340 -1.34873 
-0.15742 -1.61337 -1.34951 
-0.25782 -1.77432 -1.08875 
0.26012 -1.76480 0.90356 
-0.00035 -1.86529 0.74188 
0.16117 -1.60225 1.16374 
-0.16061 -1.60223 1.16248 
-0.26066 -1.76468 0.90192 
1.00084 0.26388 1.69635 
1.25459 0.16206 1.52976 
1.25356 -0.15663 1.53219 
0.99887 -0.25493 1.70158 
0.83141 0.00594 1.81672 
-0.99664 0.26111 1.68744 
-0.99364 -0.25735 1.68891 
-0.82533 0.00078 1.80224 
-1.25175 0.16130 1.52235 
-1.25081 -0.15707 1.52294 
1.00181 0.25958 -1.86376 
1.26258 0.16000 -1.70199 
1.26258 -0.16265 -1.70167 
1.00182 -0.26245 -1.86324 
0.84066 -0.00151 -1.96339 
-0.99152 0.25956 -1.86865 
-0.99148 -0.26247 -1.86814 
-0.82987 -0.00154 -1.96754 
-1.25301 0.16001 -1.70804 
-1.25299 -0.16263 -1.70773 
-1.60932 1.25549 0.06421 
-1.60965 1.25595 -0.25860 
-1.77012 0.99473 0.16412 
-1.77079 0.99528 -0.35828 
-1.87005 0.83392 -0.09703 
-1.61003 -1.25552 -0.25623 
-1.60981 -1.25425 0.06651 
-1.77059 -0.99317 0.16594 
-1.77107 -0.99506 -0.35638 
-1.87038 -0.83304 -0.09546 
0.00040 2.02985 0.19402 
0.00174 2.03146 -0.38604 
0.28536 2.02521 0.05287 
-0.28385 2.02488 0.05186 
0.28617 2.02599 -0.24373 
-0.28331 2.02573 -0.24481 
0.77940 1.73084 0.67813 
1.24980 1.55270 0.38977 
0.80469 1.82585 0.37560 
0.97847 1.54057 0.83656 
1.04528 1.73472 0.22810 
1.21898 1.44944 0.68904 
0.48018 1.25007 1.46126 
0.77416 0.78656 1.64701 
0.77855 1.21991 1.35858 
0.32165 1.04946 1.64754 
0.92793 0.98230 1.45159 
0.47062 0.80914 1.74880 
-0.48321 1.24781 1.46215 
-0.77111 0.78280 1.64749 
-0.32500 1.04538 1.65008 
-0.77981 1.21742 1.35913 
-0.46627 0.79957 1.75587 
-0.92746 0.97988 1.45136 
-0.78017 1.72973 0.67610 
-1.24857 1.55152 0.38586 
-0.80418 1.82484 0.37308 
-0.97929 1.53920 0.83445 
-1.04381 1.73363 0.22464 
-1.21879 1.44817 0.68584 
0.78463 1.73348 -0.86673 
1.25366 1.55396 -0.57529 
0.80792 1.82765 -0.56401 
1.04769 1.73579 -0.41500 
0.98523 1.54289 -1.02377 
1.22512 1.45116 -0.87475 
0.48774 1.24994 -1.64755 
0.77843 0.78006 -1.82536 
0.78733 1.22064 -1.54408 
0.32695 1.04432 -1.82933 
0.93597 0.98036 -1.63503 
0.47560 0.80405 -1.92023 
-0.47855 1.24994 -1.64984 
-0.76838 0.78006 -1.82912 
-0.31691 1.04433 -1.83090 
-0.77858 1.22063 -1.54775 
-0.46511 0.80406 -1.92255 
-0.92680 0.98036 -1.63944 
-0.77884 1.73322 -0.87005 
-1.24877 1.55345 -0.58032 
-0.80341 1.82721 -0.56726 
-1.04362 1.73517 -0.41909 
-0.97869 1.54270 -1.02803 
-1.21907 1.45087 -0.87992 
2.03258 0.28956 -0.08892 
2.03219 -0.29039 -0.08802 
2.02559 0.14795 0.19596 
2.02859 0.14774 -0.37347 
2.02534 -0.14844 0.19648 
2.02844 -0.14896 -0.37305 
1.73039 0.77184 0.69053 
1.54946 0.48239 1.16087 
1.53932 0.92946 0.88959 
1.44707 0.78158 1.12998 
1.82417 0.46942 0.71537 
1.73135 0.32148 0.95569 
1.73749 0.77241 -0.87148 
1.55915 0.48192 -1.34087 
1.54751 0.93024 -1.07211 
1.45626 0.78167 -1.31211 
1.83176 0.46941 -0.89498 
1.74064 0.32088 -1.13504 
1.25303 -1.55445 -0.57156 
0.78436 -1.73441 -0.86299 
1.04705 -1.73576 -0.41086 
1.22472 -1.45229 -0.87145 
0.80748 -1.82789 -0.55991 
0.98498 -1.54423 -1.02042 
1.24869 -1.55048 0.39462 
0.77929 -1.72716 0.68294 
1.04445 -1.73282 0.23286 
1.21791 -1.44604 0.69436 
0.80418 -1.82335 0.38036 
0.97810 -1.53612 0.84203 
1.72889 -0.77036 0.69397 
1.54789 -0.47947 1.16463 
1.82311 -0.46853 0.71758 
1.73046 -0.32004 0.95763 
1.53758 -0.92656 0.89439 
1.44512 -0.77764 1.13543 
1.73714 -0.77397 -0.86960 
1.55907 -0.48411 -1.33982 
1.83154 -0.47111 -0.89383 
1.74054 -0.32286 -1.13430 
1.54724 -0.93198 -1.06998 
1.45613 -0.78376 -1.31040 
0.00147 -2.03124 -0.38191 
0.00019 -2.02810 0.19815 
0.28582 -2.02537 -0.23941 
0.28502 -2.02379 0.05725 
-0.28357 -2.02522 -0.24084 
-0.28409 -2.02362 0.05577 
0.48782 -1.25239 -1.64506 
0.77849 -0.78285 -1.82381 
0.78735 -1.22294 -1.54160 
0.93600 -0.98284 -1.63304 
0.32706 -1.04709 -1.82728 
0.47569 -0.80699 -1.91866 
-0.47843 -1.25236 -1.64742 
-0.76828 -0.78286 -1.82760 
-0.31678 -1.04709 -1.82887 
-0.77849 -1.22287 -1.54539 
-0.46500 -0.80701 -1.92099 
-0.92670 -0.98280 -1.63754 
-0.77894 -1.73412 -0.86674 
-1.24901 -1.55376 -0.57741 
-0.80362 -1.82749 -0.56381 
-0.97874 -1.54392 -1.02509 
-1.04391 -1.73513 -0.41587 
-1.21919 -1.45180 -0.87717 
0.48341 -1.24128 1.46625 
0.77098 -0.77442 1.65900 
0.77892 -1.21112 1.36616 
0.92630 -0.97312 1.46079 
0.32653 -1.03862 1.65296 
0.46793 -0.79144 1.76402 
-0.48155 -1.24383 1.45782 
-0.77177 -0.77778 1.64298 
-0.32221 -1.04341 1.64271 
-0.77997 -1.21330 1.35556 
-0.46919 -0.80145 1.74357 
-0.92788 -0.97471 1.44834 
-0.78023 -1.72686 0.67817 
-1.24912 -1.54947 0.38827 
-0.80446 -1.82287 0.37597 
-1.04425 -1.73207 0.22750 
-0.97959 -1.53586 0.83552 
-1.21936 -1.44517 0.68751 
0.32564 -0.32489 2.20113 
0.04338 -0.43046 2.34168 
0.40169 0.16942 2.17075 
-0.00756 0.07039 2.82328 
-0.19892 -0.45513 2.07565 
-0.38021 -0.31617 2.27530 
-1.54857 0.48246 1.15666 
-1.72920 0.77163 0.68543 
-1.44651 0.78094 1.12663 
-1.53873 0.92880 0.88566 
-1.73068 0.32223 0.95065 
-1.82307 0.46988 0.70984 
-1.54871 -0.47760 1.15704 
[...]
CELL_DATA 1990
SCALARS Strain double 
LOOKUP_TABLE default 
-0.08667
-0.08908
-0.08820
-0.08709
-0.08984
-0.08816
-0.08720
-0.08772
-0.08769
-0.08722
-0.08825
-0.08753
-0.08792
-0.08776
-0.08812
-0.08853
-0.08798
-0.08816
-0.08718
-0.08737
-0.08729
-0.08810
-0.08768
-0.08771
-0.08722
-0.09054
-0.08729
-0.08591
-0.09038
-0.08838
-0.10168
-0.07127
-0.07262
-0.10107
-0.06626
-0.10255
-0.10015
-0.06653
-0.07168
-0.07605
-0.08743
-0.08765
-0.08749
-0.08749
-0.08751
-0.08745
-0.08745
-0.08749
-0.08752
-0.08752
-0.08844
-0.08768
-0.08674
-0.08731
-0.08881
-0.08741
-0.08892
-0.08667
-0.08754
-0.08881
-0.03453
-0.03478
0.06891
0.06931
0.06938
0.06900
-0.03524
-0.03505
0.06853
0.06966
0.06916
0.06818
-0.03253
-0.03906
0.07218
0.06184
0.07204
0.07412
-0.02945
-0.04820
0.05033
0.08367
0.09967
0.07406
-0.03652
-0.03597
0.06885
0.07179
0.07076
0.06791
-0.03368
-0.03373
0.06942
0.06858
0.06866
0.06944
-0.03411
-0.03405
0.06915
0.06993
0.06990
0.06930
-0.03406
-0.03402
0.06989
0.06925
0.06937
0.06984
-0.03376
-0.03383
0.06914
0.06915
0.06903
0.06920
-0.03481
-0.03496
0.06888
0.06960
0.06984
0.06889
-0.03337
-0.03262
0.06795
0.06797
0.06860
0.06706
-0.03465
-0.03456
0.06967
0.06968
0.06957
0.06974
-0.03403
-0.03392
0.06918
0.06930
0.06919
0.06908
-0.03673
-0.03781
0.07100
0.06861
0.06954
0.07247
-0.03176
-0.03094
0.07060
0.06496
0.06531
0.06976
-0.03415
-0.03416
0.06914
0.06967
0.06958
0.06933
-0.03473
-0.03455
0.06892
0.06917
0.06913
0.06882
-0.03409
-0.03406
0.06930
0.06976
0.06984
0.06941
-0.03410
-0.03405
0.06991
0.06928
0.06938
0.06989
-0.03361
-0.03362
0.06899
0.06895
0.06894
0.06901
-0.02212
-0.04337
0.08585
0.06710
0.04266
0.09937
-0.03281
-0.03908
0.06162
0.07164
0.07696
0.06904
-0.03617
-0.03637
0.06884
0.06943
0.06943
0.06861
-0.13418
0.30256
0.14479
-0.14287
-0.00105
-0.03202
-0.03223
0.06883
0.06557
0.06451
0.06963
-0.03156
-0.03190
0.06705
0.06581
0.06433
0.06834
-0.03396
-0.03396
0.06952
0.06957
0.06958
0.06953
-0.03415
-0.03412
0.06961
0.06937
0.06942
0.06955
-0.03416
-0.03415
0.06970
0.06928
0.06937
0.06965
-0.03605
-0.03606
0.07035
0.06989
0.06984
0.07013
-0.06515
-0.04498
0.07820
0.07905
0.03340
0.03263
-0.06694
-0.04609
0.07806
0.08080
0.03432
0.03222
-0.06698
-0.04774
0.08160
0.07667
0.03287
0.03630
-0.06498
-0.04405
0.07532
0.08188
0.03533
0.02968
-0.06812
-0.04749
0.07905
0.08145
0.03511
0.03340
-0.06635
-0.04571
0.07996
0.07988
0.03425
0.03433
-0.06517
-0.04449
0.07989
0.07910
0.03330
0.03413
-0.06572
-0.04500
0.07932
0.08039
0.03468
0.03389
-0.06567
-0.04495
0.08036
0.07935
0.03389
0.03462
-0.06521
-0.04455
0.07982
0.07920
0.03348
0.03410
-0.06645
-0.04586
0.07923
0.07936
0.03386
0.03382
-0.06542
-0.04464
0.07902
0.07950
0.03374
0.03334
-0.06608
-0.04553
0.07908
0.07976
0.03420
0.03347
-0.06563
-0.04466
0.07902
0.07894
0.03300
0.03290
-0.06621
-0.04554
0.07964
0.07979
0.03431
0.03412
-0.06667
-0.04594
0.08020
0.07942
0.03393
0.03437
-0.06587
-0.04503
0.08003
0.07927
0.03343
0.03405
-0.06670
-0.04671
0.08070
0.07837
0.03350
0.03597
-0.06468
-0.04334
0.08004
0.07756
0.03152
0.03354
-0.06549
-0.04492
0.07937
0.07940
0.03387
0.03386
-0.06531
-0.04468
0.07982
0.07927
0.03354
0.03411
-0.06628
-0.04564
0.07986
0.07980
0.03419
0.03424
-0.06567
-0.04497
0.07941
0.08030
0.03455
0.03394
-0.06571
-0.04499
0.08034
0.07940
0.03393
0.03466
-0.06518
-0.04447
0.07973
0.07922
0.03344
0.03399
-0.06921
-0.04886
0.08012
0.08023
0.03464
0.03550
-0.06552
-0.04513
0.07938
0.07764
0.03224
0.03336
-0.06211
-0.03881
0.07924
0.07525
0.02634
0.03060
-0.07020
-0.05096
0.07905
0.08056
0.03643
0.03495
-0.06649
-0.04623
0.07737
0.07974
0.03376
0.03151
-0.06005
-0.03608
0.07427
0.07995
0.03148
0.02305
-0.05915
-0.04197
0.07594
0.07478
0.03368
0.03376
-0.05939
-0.04071
0.07340
0.08084
0.03721
0.02995
-0.06126
-0.04434
0.08171
0.07949
0.04050
0.03590
-0.02223
0.03379
0.13854
0.14283
0.02574
0.02586
-0.05848
-0.04471
0.07506
0.08086
0.04002
0.03558
-0.06640
-0.04374
0.08419
0.07732
0.03146
0.03532
-0.02162
0.15106
0.12693
0.02634
0.02688
-0.06058
-0.04213
0.07802
0.07281
0.03048
0.03454
-0.06003
-0.04162
0.07773
0.07099
0.02923
0.03454
-0.06546
-0.04484
0.07998
0.07970
0.03392
0.03434
-0.06581
-0.04528
0.07993
0.08003
0.03435
0.03421
-0.06558
-0.04496
0.08001
0.07971
0.03391
0.03430
-0.06551
-0.04486
0.07985
0.07984
0.03409
0.03427
-0.06549
-0.04480
0.07979
0.07989
0.03423
0.03416
-0.06547
-0.04482
0.07982
0.07994
0.03431
0.03407
-0.06548
-0.04484
0.07981
0.07997
0.03434
0.03407
-0.06549
-0.04481
0.07988
0.07986
0.03421
0.03424
-0.06560
-0.04497
0.07988
0.07994
0.03427
0.03416
-0.06560
-0.04498
0.07991
0.07993
0.03423
0.03420
-0.06684
-0.04649
0.08071
0.07852
0.03359
0.03559
-0.06557
-0.04477
0.08010
0.07896
0.03325
0.03406
-0.06428
-0.04327
0.07762
0.07966
0.03322
0.03116
-0.06543
-0.04488
0.07901
0.07998
0.03426
0.03342
-0.06723
-0.04679
0.08012
0.08026
0.03494
0.03454
-0.06528
-0.04451
0.07984
0.07869
0.03293
0.03390
-0.06749
-0.04715
0.08030
0.07911
0.03407
0.03502
-0.06416
-0.04306
0.07804
0.07876
0.03201
0.03129
-0.06558
-0.04495
0.07883
0.08020
0.03445
0.03334
-0.06724
-0.04680
0.07955
0.08053
0.03528
0.03424
0.07129
0.07116
0.01984
0.02013
0.01662
0.01674
0.07173
0.07163
0.01905
0.02085
0.01721
0.01596
0.07193
0.07194
0.02053
0.01956
0.01643
0.01731
0.07156
0.07160
0.02062
0.01985
0.01687
0.01739
0.07280
0.07356
0.01871
0.01826
0.01644
0.01442
0.07133
0.07113
0.02029
0.02000
0.01678
0.01723
0.07069
0.07071
0.02034
0.01920
0.01612
0.01726
0.08249
0.07248
0.02359
0.01886
0.00806
0.02310
0.07082
0.07040
0.01933
0.02027
0.01616
0.01702
0.08184
0.00134
0.04537
0.02569
0.06238
0.02559
0.07913
0.07594
0.01561
0.01938
0.01265
0.01559
0.13688
0.13773
0.08816
0.02576
0.07591
0.02575
0.07275
0.07157
0.02242
0.01675
0.01298
0.01950
0.07252
0.07198
0.02026
0.01943
0.01608
0.01730
0.06955
0.06880
0.02235
0.01913
0.01578
0.01946
0.07132
0.07149
0.02045
0.02096
0.01774
0.01732
0.07200
0.07209
0.01972
0.02076
0.01768
0.01666
0.07245
0.07243
0.02033
0.02031
0.01722
0.01723
0.07236
0.07228
0.02010
0.02062
0.01738
0.01679
0.07191
0.07198
0.02068
0.02051
0.01729
0.01751
0.07165
0.07156
0.02088
0.02043
0.01730
0.01764
0.07197
0.07204
0.02066
0.02051
0.01729
0.01751
0.07228
0.07220
0.02031
0.02055
0.01734
0.01707
0.07175
0.07181
0.02024
0.02065
0.01756
0.01704
0.07135
0.07128
0.02075
0.01891
0.01546
0.01795
0.07200
0.07201
0.01981
0.02046
0.01727
0.01669
0.07269
0.07302
0.02035
0.01797
0.01512
0.01721
0.07142
0.07150
0.02053
0.02029
0.01721
0.01727
0.06899
0.06819
0.02020
0.02247
0.01849
0.01716
0.07226
0.07224
0.02047
0.02009
0.01678
0.01726
0.07199
0.07257
0.01944
0.02021
0.01724
0.01590
0.07191
0.07200
0.02026
0.02036
0.01736
0.01706
0.07159
0.07151
0.01989
0.02048
0.01729
0.01685
0.07161
0.07170
0.02045
0.02078
0.01750
0.01732
0.06984
0.06858
0.02354
0.01886
0.01434
0.02188
0.07198
0.07179
0.02063
0.01870
0.01565
0.01711
0.07728
0.08117
0.02243
0.01114
0.01249
0.01495
0.07133
0.06994
0.01600
0.02765
0.02345
0.01345
0.07201
0.07216
0.02058
0.02033
0.01709
0.01736
0.07160
0.07153
0.02056
0.01972
0.01659
0.01740
0.07125
0.07124
0.01954
0.02000
0.01670
0.01618
0.07240
0.07242
0.02036
0.02034
0.01723
0.01727
0.07200
0.07206
0.02064
0.02047
0.01727
0.01749
0.07167
0.07155
0.02096
0.02032
0.01719
0.01776
0.07196
0.07201
0.02067
0.02054
0.01732
0.01750
0.07235
0.07229
0.02032
0.02050
0.01726
0.01707
0.07158
0.07178
0.01916
0.02057
0.01743
0.01601
0.07158
0.07168
0.02017
0.02082
0.01771
0.01702
0.07307
0.08858
0.01238
0.02544
0.02902
0.00087
0.12604
-0.04874
0.06741
0.02538
0.09448
0.02575
0.07221
0.07187
0.01769
0.01871
0.01459
0.01453
0.09242
0.13449
0.04909
0.02589
0.05663
0.02580
0.06929
0.06891
0.02126
0.01712
0.01451
0.01820
0.07060
0.06966
0.02151
0.01762
0.01421
0.01832
0.06649
0.06644
0.02143
0.02072
0.01786
0.01862
0.07268
0.07291
0.01703
0.02140
0.01814
0.01364
0.07166
0.07219
0.01705
0.02188
0.01879
0.01364
0.07194
0.07192
0.02045
0.02049
0.01733
0.01728
0.07209
0.07220
0.01974
0.02073
0.01742
0.01656
0.07222
0.07239
0.01970
0.02056
0.01732
0.01654
0.06920
0.07022
-0.00686
-0.00775
0.07252
-0.00513
-0.00746
0.06768
-0.00786
-0.00414
0.07220
-0.00554
-0.00923
-0.00485
-0.00606
0.07119
0.07118
-0.00546
-0.00546
0.07051
-0.00650
-0.00581
0.07160
-0.00523
-0.00598
0.07052
-0.00601
-0.00527
-0.00643
-0.00579
0.07048
0.07075
-0.00581
-0.00603
0.07061
-0.00634
-0.00646
0.07030
0.07097
-0.00581
-0.00640
-0.00672
-0.00648
-0.00563
-0.00598
0.07117
0.07077
-0.00562
-0.00553
0.07155
0.07032
-0.00655
-0.00565
0.06973
-0.00636
-0.00465
-0.00748
-0.00643
-0.00640
-0.00608
0.07117
0.07057
-0.00636
-0.00579
0.07110
-0.00557
-0.00548
0.07154
-0.00534
-0.00597
0.07058
-0.00596
-0.00526
-0.00640
-0.00586
0.07111
0.07020
-0.00558
-0.00409
0.06807
-0.00843
-0.00655
0.06834
-0.01062
-0.00925
0.07219
-0.00293
-0.00650
-0.00569
-0.00918
0.06298
0.09978
-0.00336
-0.02431
0.05808
-0.00535
-0.00480
0.06667
-0.00183
-0.00721
0.09788
-0.00235
-0.02032
-0.03320
-0.03179
0.10263
0.06187
-0.02574
-0.00528
0.09007
0.06936
-0.01215
-0.00131
-0.03287
-0.02600
0.05702
-0.00629
-0.00602
-0.01082
-0.00241
0.07114
0.07102
-0.00591
-0.00564
0.07121
-0.00557
-0.00568
0.07101
-0.00591
-0.00562
0.07115
-0.00572
-0.00569
-0.00564
-0.00572
0.07113
0.07111
-0.00565
-0.00575
0.07111
0.07113
-0.00564
-0.00575
-0.00566
-0.00564
0.07119
-0.00561
-0.00572
-0.00562
-0.00571
0.07175
0.06983
-0.00613
-0.00454
0.06994
-0.00682
-0.00559
0.07093
-0.00671
-0.00780
0.07141
-0.00566
-0.00685
-0.00484
-0.00547
0.07154
0.06968
-0.00723
-0.00578
0.07017
-0.00574
-0.00468
0.07034
-0.00753
-0.00770
0.07166
-0.00542
-0.00693
-0.00460
-0.00577
0.05590
0.05532
0.07613
0.07675
0.05611
0.05633
0.07730
0.07708
-0.01529
-0.01639
0.04932
-0.01504
-0.01607
0.04875
-0.01683
0.04937
-0.01665
0.04960
0.05611
0.05478
0.07582
0.07753
0.05565
0.05604
0.07670
0.07645
-0.01541
-0.01685
0.04906
-0.01563
-0.01750
0.04754
-0.01671
0.04917
-0.01710
0.04956
0.05240
0.05029
0.07654
0.07829
0.05068
0.06558
0.07469
0.05992
-0.01837
-0.01714
0.04961
-0.00291
-0.02024
0.02732
-0.01472
0.04816
-0.02273
0.03294
0.05682
0.04731
0.07218
0.08028
0.07558
0.05905
0.07284
0.08030
0.00468
-0.01188
0.03845
-0.02223
-0.01593
0.04946
-0.04845
0.01092
-0.01976
0.05321
0.05742
0.05526
0.07656
0.07918
0.05558
0.05802
0.07829
0.07582
-0.01637
-0.01791
0.05010
-0.01664
-0.01923
0.04680
-0.01746
0.04937
-0.01770
0.05204
0.05539
0.05628
0.07725
0.07644
0.05608
0.05545
0.07634
0.07707
-0.01436
-0.01571
0.04871
-0.01583
0.04938
-0.01415
-0.01551
0.04964
-0.01562
0.04890
0.05679
0.05606
0.07682
0.07776
0.05601
0.05661
0.07752
0.07707
-0.01456
-0.01601
0.05008
-0.01461
-0.01607
0.04951
-0.01589
0.04920
-0.01595
0.04996
0.05609
0.05672
0.07772
0.07689
0.05657
0.05614
0.07717
0.07747
-0.01458
-0.01603
0.04953
-0.01453
-0.01597
0.04999
-0.01593
0.04994
-0.01589
0.04938
0.05574
0.05616
0.07709
0.07666
0.05567
0.05599
0.07716
0.07668
-0.01439
-0.01573
0.04925
-0.01589
0.04890
-0.01427
-0.01560
0.04953
-0.01575
0.04927
0.05648
0.05563
0.07654
0.07725
0.05582
0.05647
0.07767
0.07671
-0.01595
-0.01714
0.05013
-0.01495
-0.01626
0.04900
-0.01756
0.04916
-0.01645
0.04966
0.05500
0.05447
0.07597
0.07632
0.05491
0.05554
0.07513
0.07402
-0.01417
-0.01579
0.04824
-0.01542
0.04842
-0.01370
-0.01555
0.04740
-0.01445
0.04903
0.05648
0.05644
0.07728
0.07727
0.05651
0.05637
0.07739
0.07749
-0.01513
-0.01663
0.04993
-0.01641
0.04978
-0.01513
-0.01660
0.04980
-0.01642
0.04964
0.05578
0.05602
0.07716
0.07688
0.05579
0.05620
0.07711
0.07672
-0.01454
-0.01607
0.04889
-0.01445
-0.01599
0.04931
-0.01586
0.04926
-0.01573
0.04960
0.05580
0.05878
0.07850
0.07591
0.05735
0.05687
0.07756
0.07901
-0.01693
-0.01770
0.04954
-0.01832
-0.01843
0.05378
-0.01859
0.05004
-0.02180
0.04820
0.05271
0.05599
0.07777
0.07397
0.05824
0.05159
0.07182
0.07821
-0.01369
-0.01527
0.04640
-0.01506
0.05110
-0.01048
-0.01298
0.04821
-0.01101
0.04535
0.05630
0.05607
0.07681
0.07712
0.05600
0.05645
0.07745
0.07710
-0.01463
-0.01599
0.04972
-0.01602
0.04918
-0.01473
-0.01611
0.04959
-0.01610
0.04972
0.05616
0.05609
0.07705
0.07708
0.05513
0.05569
0.07676
0.07590
-0.01507
-0.01662
0.04951
-0.01622
0.04859
-0.01523
-0.01673
0.04939
-0.01644
0.04895
0.05665
0.05614
0.07694
0.07767
0.05617
0.05652
0.07738
0.07720
-0.01455
-0.01599
0.04988
-0.01591
0.04942
-0.01461
-0.01605
0.04957
-0.01597
0.04991
0.05612
0.05677
0.07773
0.07692
0.05660
0.05615
0.07717
0.07751
-0.01458
-0.01603
0.04953
-0.01460
-0.01605
0.05007
-0.01593
0.04994
-0.01594
0.04940
0.05562
0.05602
0.07698
0.07663
0.05545
0.05587
0.07690
0.07644
-0.01424
-0.01566
0.04897
-0.01411
-0.01548
0.04938
-0.01564
0.04877
-0.01555
0.04923
0.04068
0.05275
0.07863
0.06952
0.06498
0.06634
0.07746
0.07720
-0.01890
-0.01092
0.04451
-0.01955
0.05802
0.01479
-0.00584
0.02970
-0.03827
0.00421
0.04855
0.05220
0.08239
0.07410
0.06157
0.05533
0.07274
0.07518
-0.00224
-0.02453
0.02788
-0.01843
-0.01749
0.04730
-0.02413
0.03376
-0.01819
0.04947
0.05579
0.05504
0.07569
0.07644
0.05601
0.05672
0.07750
0.07658
-0.01630
-0.01732
0.04917
-0.01778
0.04945
-0.01723
-0.01834
0.04792
-0.01871
0.04999
-0.03806
0.09209
0.07203
0.00355
0.40376
-0.21653
0.07926
-0.04617
-0.01667
-0.00380
0.17625
-0.21263
0.05202
0.05658
0.07641
0.07125
0.05551
0.05231
0.07410
0.07720
-0.01267
-0.01424
0.04576
-0.01410
0.04862
-0.01329
-0.01478
0.05048
-0.01463
0.04516
0.05176
0.05555
0.07490
0.07058
0.05392
0.05238
0.07452
0.07602
-0.01272
-0.01396
0.04652
-0.01426
0.04651
-0.01278
-0.01444
0.04944
-0.01419
0.04516
0.05637
0.05631
0.07723
0.07731
0.05634
0.05638
0.07731
0.07727
-0.01444
-0.01583
0.04967
-0.01584
0.04964
-0.01444
-0.01585
0.04963
-0.01584
0.04969
0.05634
0.05633
0.07732
0.07731
0.05642
0.05594
0.07681
0.07732
-0.01474
-0.01611
0.04963
-0.01611
0.04983
-0.01458
-0.01601
0.04965
-0.01590
0.04930
0.05628
0.05639
0.07738
0.07728
0.05655
0.05587
0.07668
0.07748
-0.01475
-0.01611
0.04953
-0.01615
0.04996
-0.01462
-0.01603
0.04972
-0.01598
0.04926
0.05691
0.05682
0.07786
0.07766
0.05731
0.05652
0.07734
0.07794
-0.01738
-0.01870
0.05022
-0.01870
0.05082
-0.01587
-0.01724
0.04996
-0.01726
0.04978
-0.01715
-0.01815
-0.01680
-0.01916
0.08431
0.08501
-0.01858
-0.01950
0.08604
-0.01838
-0.01487
0.08263
-0.01760
-0.02053
0.08833
-0.01804
-0.01690
-0.01792
-0.01690
0.08563
0.08543
-0.01669
-0.01725
0.08496
-0.01735
-0.01731
0.08610
-0.01722
-0.01676
0.08509
-0.01787
-0.01713
-0.01829
-0.01725
0.08479
0.08463
-0.01693
-0.01789
0.08550
-0.01815
-0.01706
-0.01742
-0.01783
0.08482
0.08554
-0.01893
-0.01676
-0.01776
-0.01710
0.08623
0.08505
-0.01748
-0.01838
-0.01736
-0.01725
0.08600
0.08534
-0.01863
-0.01524
0.08316
-0.01703
-0.01786
-0.01685
-0.01723
0.08542
0.08515
-0.01794
-0.01689
0.08538
-0.01731
-0.01731
0.08605
-0.01730
-0.01669
0.08511
-0.01983
-0.01714
-0.02293
-0.01399
0.08541
0.08775
-0.01742
-0.01822
0.08407
-0.01167
-0.02325
0.08535
-0.02132
-0.01795
0.08405
-0.01475
-0.01652
0.01525
-0.07361
0.08319
0.03907
-0.01466
-0.01643
0.08144
-0.01214
-0.02014
0.08628
0.01436
-0.07446
0.03810
0.01982
-0.07991
-0.01919
-0.01568
0.02865
0.08585
-0.00130
-0.04908
-0.01967
-0.01466
0.05887
0.08275
-0.01579
-0.01617
0.07903
-0.01705
-0.01748
-0.01711
-0.01705
0.08580
0.08550
-0.01749
-0.01718
0.08583
-0.01724
-0.01708
0.08560
-0.01715
-0.01708
0.08561
-0.01711
-0.01707
-0.01707
-0.01726
0.08559
0.08574
-0.01710
-0.01706
-0.01710
-0.01726
0.08557
0.08579
-0.01720
-0.01721
0.08564
-0.01844
-0.01727
-0.01859
-0.01557
0.08598
0.08331
-0.01704
-0.01723
0.08508
-0.01597
-0.01966
0.08604
-0.01698
-0.01838
0.08578
-0.01693
-0.01889
-0.01682
-0.01733
0.08552
0.08489
-0.01960
-0.01573
0.08407
-0.01564
-0.01964
0.08521
-0.01714
-0.01842
0.08598
0.04802
0.04810
0.04756
0.04827
0.04756
0.04833
0.04813
0.04677
0.04724
0.09517
-0.02302
-0.01229
0.05147
0.04761
0.04482
0.04778
0.04845
0.04876
0.04870
0.04833
0.04835
0.04804
0.04866
0.04832
0.04785
0.04930
0.04569
0.04835
0.04781
0.04852
0.04830
0.04746
0.04829
0.04840
0.04808
0.04849
0.04528
0.05462
0.04538
0.04759
0.04814
0.04781
0.04868
0.04839
0.04833
0.04805
0.04876
0.04819
0.10081
-0.03130
-0.01229
0.04850
0.04522
0.04617
0.04375
0.04952
0.04868
0.04803
0.04843
0.04854
-0.01599
0.05252
0.08751
-0.12198
-0.19590
0.00719
-0.23575
-0.13634
0.02120
0.16677
0.02598
-0.17999
0.26500
0.03376
0.01540
0.04321
-0.08727
-0.07966
-0.11135
-0.13328
0.00998
-0.02657
-0.11850
-0.13573
0.28874
-0.05322
0.18244
0.07950
-0.03304
0.01406
0.00518
-0.02643
-0.06438
-0.08688
0.08488
0.07040
-0.08874
-0.14862
0.05073
0.13822
-0.12767
0.19745
-0.28082
-0.15409
0.00056
0.16158
-0.00869
-0.14791
-0.17641
-0.09747
0.07784
0.11200
0.00896
-0.09603
0.09739
-0.13766
-0.11353
0.01601
0.40913
-0.09661
-0.00610
-0.09854
-0.14246
-0.10730
0.22151
-0.11945
-0.07428
-0.00561
0.02287
-0.19312
-0.01408
-0.05548
-0.04761
-0.17797
-0.12737
-0.26626
0.05860
0.10000
