# vtk DataFile Version 3.0
Point representing Sub_cellular elem model
ASCII

DATASET UNSTRUCTURED_GRID
POINTS 669 float
-0.00116 1.73432 0.96866 
0.00298 1.74047 -1.18337 
1.74186 1.07515 -0.10271 
1.74125 -1.07583 -0.09948 
0.00295 -1.74295 -1.18006 
0.00046 -1.73503 0.96980 
1.07573 -0.00022 1.65147 
-1.06629 0.00213 1.65011 
1.08126 -0.00203 -1.84365 
-1.07206 -0.00190 -1.84848 
-1.73920 1.07497 -0.10868 
-1.74022 -1.07496 -0.10754 
0.00052 2.05076 -0.10753 
1.02427 1.65782 0.52851 
0.63342 1.02146 1.56249 
-0.62525 1.01715 1.56830 
-1.02372 1.65555 0.52643 
1.02878 1.65974 -0.73934 
0.63895 1.02459 -1.76510 
-0.63019 1.02457 -1.76779 
-1.02456 1.65951 -0.74305 
2.05261 -0.00064 -0.10045 
1.65685 0.63360 0.92368 
1.66429 0.63291 -1.12847 
1.02849 -1.66128 -0.73548 
1.02494 -1.65649 0.53332 
1.65638 -0.63210 0.92652 
1.66404 -0.63588 -1.12688 
0.00084 -2.05119 -0.10405 
0.63892 -1.02837 -1.76299 
-0.63018 -1.02823 -1.76595 
-1.02482 -1.66109 -0.74056 
0.62950 -1.01926 1.56751 
-0.63580 -1.02273 1.55430 
-1.02525 -1.65649 0.52630 
0.06578 0.47931 2.40501 
-1.65232 0.63268 0.91931 
-1.65547 -0.62925 0.91830 
0.00531 -0.00223 -2.15682 
-1.65821 0.63316 -1.13524 
-1.65834 -0.63535 -1.13425 
-2.05037 0.00034 -0.10853 
-0.00059 1.96700 0.46365 
0.52120 1.76656 0.78772 
0.32147 1.44126 1.31277 
-0.32220 1.43928 1.31351 
-0.52257 1.76460 0.78700 
0.00181 1.97063 -0.67879 
0.52634 1.77068 -1.00107 
0.32749 1.44665 -1.52432 
-0.31992 1.44660 -1.52564 
-0.52116 1.77054 -1.00304 
1.44710 1.41688 0.21941 
1.44965 1.41738 -0.42737 
1.97171 0.57041 -0.10150 
1.76962 0.89377 0.42086 
1.77382 0.89380 -0.62582 
1.97128 -0.57149 -0.09968 
1.44913 -1.41845 -0.42361 
1.44676 -1.41637 0.22371 
1.76912 -0.89326 0.42399 
1.77334 -0.89577 -0.62335 
0.52624 -1.77274 -0.99740 
0.00182 -1.97201 -0.67513 
0.32747 -1.44988 -1.52145 
-0.31991 -1.44980 -1.52299 
-0.52122 -1.77265 -0.99999 
0.52302 -1.76586 0.79124 
0.00037 -1.96722 0.46632 
0.32361 -1.44190 1.31395 
-0.32310 -1.44234 1.30935 
-0.52255 -1.76603 0.78681 
0.89903 0.52292 1.67887 
1.41562 0.32334 1.34749 
1.41498 -0.32213 1.34900 
0.89495 -0.52578 1.67954 
0.57538 -0.00888 1.91451 
-0.88831 0.52435 1.67929 
-0.89730 -0.52099 1.67238 
-0.56155 -0.00204 1.91831 
-1.40860 0.32371 1.34458 
-1.41155 -0.31806 1.34299 
0.89989 0.52154 -1.87468 
1.42292 0.32178 -1.55008 
1.42285 -0.32543 -1.54934 
0.89985 -0.52560 -1.87358 
0.57663 -0.00219 -2.07450 
-0.89056 0.52159 -1.87862 
-0.89056 -0.52546 -1.87768 
-0.56640 -0.00213 -2.07713 
-1.41502 0.32197 -1.55618 
-1.41505 -0.32513 -1.55563 
-1.44519 1.41570 0.21521 
-1.44636 1.41716 -0.43240 
-1.76696 0.89307 0.41535 
-1.76977 0.89405 -0.63253 
-1.96906 0.57082 -0.10867 
-1.44700 -1.41803 -0.43061 
-1.44683 -1.41579 0.21606 
-1.76899 -0.89170 0.41560 
-1.77016 -0.89505 -0.63131 
-1.96973 -0.57036 -0.10813 
0.55587 1.94864 0.19880 
-0.55573 1.94769 0.19740 
0.55774 1.95013 -0.41197 
-0.55520 1.94979 -0.41380 
0.89666 1.39060 1.10037 
1.05123 1.76096 -0.10534 
1.39138 1.20386 0.79598 
0.00224 1.04601 1.66799 
1.20242 0.89879 1.29173 
0.31561 0.54512 1.89215 
-0.89496 1.38667 1.10072 
-0.28945 0.53807 1.90993 
-1.19629 0.89612 1.29130 
-1.04938 1.76017 -0.10849 
-1.38860 1.20125 0.79311 
0.90416 1.39351 -1.31063 
1.39805 1.20476 -1.00388 
0.00459 1.04898 -1.86808 
1.21025 0.89880 -1.49802 
0.31068 0.55433 -2.05539 
-0.89745 1.39342 -1.31421 
-0.30057 0.55434 -2.05676 
-1.20259 0.89883 -1.50303 
-1.39255 1.20476 -1.00930 
1.94889 0.30513 0.45508 
1.95336 0.30434 -0.65757 
1.94862 -0.30501 0.45625 
1.95317 -0.30667 -0.65669 
1.75841 0.00061 0.94956 
1.76593 -0.00157 -1.15192 
1.05114 -1.76095 -0.10091 
1.39769 -1.20719 -1.00095 
0.55778 -1.95081 -0.40785 
0.90400 -1.39638 -1.30759 
1.39134 -1.20207 0.80065 
0.55652 -1.94824 0.20290 
0.89767 -1.38840 1.10575 
1.20133 -0.89695 1.29643 
1.21010 -0.90222 -1.49600 
-0.55526 -1.95088 -0.41085 
-0.55572 -1.94846 0.19940 
0.00462 -1.05288 -1.86607 
0.31069 -0.55862 -2.05428 
-0.89753 -1.39614 -1.31186 
-0.30054 -0.55858 -2.05571 
-1.20266 -0.90190 -1.50151 
-1.05002 -1.76097 -0.10665 
-1.39277 -1.20675 -1.00743 
-0.00047 -1.05231 1.65990 
0.29033 -0.54472 1.89159 
-0.89903 -1.38862 1.09593 
-0.31349 -0.55953 1.87617 
-1.20301 -0.89423 1.28618 
-1.39225 -1.20061 0.79166 
-1.75486 0.00234 0.94317 
-1.94625 0.30580 0.44821 
-1.94714 -0.30334 0.44825 
-1.75988 -0.00111 -1.15941 
-1.94932 0.30493 -0.66538 
-1.94946 -0.30589 -0.66496 
-0.00098 1.86702 0.72720 
0.25910 1.76713 0.88880 
0.15954 1.60464 1.15032 
-0.16158 1.60380 1.15032 
-0.26115 1.76604 0.88847 
0.00242 1.87216 -0.94229 
0.26390 1.77242 -1.10294 
0.16477 1.61088 -1.36382 
-0.15797 1.61085 -1.36446 
-0.25830 1.77235 -1.10394 
1.61179 1.25601 0.05793 
1.61310 1.25616 -0.26453 
1.87333 0.83394 -0.10209 
1.77260 0.99513 0.15834 
1.77472 0.99522 -0.36345 
1.87278 -0.83482 -0.09950 
1.61251 -1.25704 -0.26098 
1.61124 -1.25611 0.06172 
1.77203 -0.99522 0.16153 
1.77415 -0.99656 -0.36057 
0.26385 -1.77471 -1.09943 
0.00239 -1.87411 -0.93875 
0.16475 -1.61375 -1.36068 
-0.15797 -1.61372 -1.36146 
-0.25833 -1.77466 -1.10071 
0.26100 -1.76718 0.89114 
0.00040 -1.86742 0.72919 
0.16155 -1.60541 1.15126 
-0.16064 -1.60542 1.14949 
-0.26021 -1.76720 0.88886 
1.00127 0.25986 1.68197 
1.25647 0.16068 1.51510 
1.25677 -0.15973 1.51503 
1.00257 -0.26133 1.68028 
0.83716 -0.00191 1.79387 
-0.99420 0.26101 1.67906 
-0.99540 -0.25719 1.67816 
-0.82588 0.00056 1.79393 
-1.24905 0.16157 1.51228 
-1.25013 -0.15628 1.51176 
1.00131 0.25896 -1.87594 
1.26205 0.15938 -1.71414 
1.26202 -0.16326 -1.71378 
1.00128 -0.26306 -1.87539 
0.84015 -0.00212 -1.97557 
-0.99196 0.25905 -1.88037 
-0.99196 -0.26292 -1.87991 
-0.83036 -0.00203 -1.97936 
-1.25342 0.15954 -1.71967 
-1.25343 -0.16306 -1.71939 
-1.60948 1.25540 0.05275 
-1.61018 1.25597 -0.27007 
-1.77017 0.99471 0.15251 
-1.77149 0.99532 -0.36984 
-1.87064 0.83402 -0.10868 
-1.61103 -1.25642 -0.26861 
-1.61083 -1.25535 0.05387 
-1.77164 -0.99409 0.15327 
-1.77214 -0.99578 -0.36863 
-1.87153 -0.83379 -0.10786 
-0.00007 2.02916 0.18259 
0.00116 2.03101 -0.39768 
0.28478 2.02470 0.04127 
-0.28428 2.02430 0.04048 
0.28557 2.02555 -0.25542 
-0.28383 2.02530 -0.25631 
0.77900 1.72997 0.66645 
1.24933 1.55237 0.37792 
0.80413 1.82528 0.36385 
0.97826 1.53971 0.82498 
1.04470 1.73431 0.21624 
1.21871 1.44902 0.67736 
0.48219 1.24637 1.45045 
0.77472 0.78004 1.63835 
0.77938 1.21707 1.34801 
0.32633 1.04373 1.63783 
0.92850 0.97907 1.44155 
0.47373 0.79893 1.74243 
-0.47960 1.24285 1.45339 
-0.76419 0.77978 1.64175 
-0.31988 1.04035 1.64274 
-0.77546 1.21278 1.35064 
-0.45830 0.79436 1.75270 
-0.92167 0.97619 1.44363 
-0.77942 1.72759 0.66519 
-1.24800 1.55058 0.37479 
-0.80403 1.82368 0.36203 
-0.97755 1.53653 0.82383 
-1.04371 1.73290 0.21355 
-1.21719 1.44635 0.67497 
0.78401 1.73291 -0.87870 
1.25298 1.55345 -0.58732 
0.80728 1.82715 -0.57595 
1.04703 1.73533 -0.42697 
0.98460 1.54230 -1.03581 
1.22446 1.45059 -0.88681 
0.48723 1.24932 -1.65961 
0.77794 0.77945 -1.83753 
0.78680 1.22003 -1.55618 
0.32645 1.04371 -1.84141 
0.93546 0.97975 -1.64717 
0.47511 0.80345 -1.93237 
-0.47899 1.24927 -1.66161 
-0.76881 0.77947 -1.84087 
-0.31738 1.04370 -1.84278 
-0.77899 1.21997 -1.55940 
-0.46558 0.80346 -1.93443 
-0.92718 0.97974 -1.65108 
-0.77931 1.73271 -0.88158 
-1.24926 1.55322 -0.59174 
-0.80389 1.82683 -0.57872 
-1.04407 1.73491 -0.43046 
-0.97911 1.54216 -1.03955 
-1.21952 1.45047 -0.89140 
2.03228 0.28937 -0.10095 
2.03205 -0.29060 -0.10001 
2.02572 0.14792 0.18394 
2.02807 0.14741 -0.38547 
2.02559 -0.14853 0.18446 
2.02796 -0.14927 -0.38502 
1.73074 0.77209 0.67862 
1.55059 0.48252 1.14875 
1.53965 0.92954 0.87791 
1.44768 0.78145 1.11842 
1.82487 0.46973 0.70337 
1.73253 0.32179 0.94352 
1.73680 0.77186 -0.88355 
1.55855 0.48131 -1.35297 
1.54685 0.92965 -1.08421 
1.45566 0.78106 -1.32422 
1.83107 0.46886 -0.90702 
1.73997 0.32029 -1.14709 
1.25258 -1.55474 -0.58346 
0.78384 -1.73470 -0.87490 
1.04678 -1.73609 -0.42278 
1.22411 -1.45260 -0.88334 
0.80713 -1.82821 -0.57185 
0.98437 -1.54455 -1.03233 
1.24941 -1.55134 0.38261 
0.78034 -1.72874 0.67087 
1.04493 -1.73360 0.22087 
1.21908 -1.44735 0.68230 
0.80488 -1.82442 0.36830 
0.97933 -1.53788 0.83004 
1.73028 -0.77101 0.68166 
1.55000 -0.48094 1.15115 
1.82448 -0.46884 0.70532 
1.73218 -0.32046 0.94506 
1.53927 -0.92785 0.88184 
1.44706 -0.77963 1.12221 
1.73643 -0.77437 -0.88150 
1.55841 -0.48466 -1.35181 
1.83083 -0.47156 -0.90576 
1.73984 -0.32339 -1.14627 
1.54653 -0.93240 -1.08190 
1.45545 -0.78426 -1.32237 
0.00129 -2.03186 -0.39404 
0.00052 -2.02938 0.18576 
0.28578 -2.02601 -0.25151 
0.28528 -2.02473 0.04505 
-0.28371 -2.02609 -0.25311 
-0.28401 -2.02486 0.04332 
0.48720 -1.25285 -1.65708 
0.77790 -0.78341 -1.83590 
0.78672 -1.22340 -1.55360 
0.93537 -0.98336 -1.64507 
0.32646 -1.04759 -1.83934 
0.47511 -0.80753 -1.93075 
-0.47899 -1.25274 -1.65935 
-0.76881 -0.78326 -1.83948 
-0.31735 -1.04753 -1.84085 
-0.77902 -1.22321 -1.55727 
-0.46556 -0.80745 -1.93295 
-0.92721 -0.98315 -1.64938 
-0.77944 -1.73457 -0.87879 
-1.24968 -1.55447 -0.58960 
-0.80408 -1.82818 -0.57601 
-0.97927 -1.54431 -1.03707 
-1.04448 -1.73601 -0.42817 
-1.21978 -1.45228 -0.88919 
0.48274 -1.24583 1.45323 
0.76909 -0.78107 1.64130 
0.77911 -1.21473 1.35357 
0.92639 -0.97752 1.44663 
0.32360 -1.04461 1.63775 
0.46228 -0.79723 1.74544 
-0.48447 -1.24786 1.44424 
-0.77589 -0.78000 1.63020 
-0.32744 -1.04888 1.62889 
-0.78206 -1.21592 1.34196 
-0.47494 -0.80496 1.73106 
-0.93038 -0.97662 1.43491 
-0.78031 -1.72894 0.66480 
-1.24974 -1.55103 0.37518 
-0.80459 -1.82464 0.36300 
-1.04469 -1.73365 0.21463 
-0.98002 -1.53785 0.82182 
-1.21990 -1.44678 0.67396 
0.33005 -0.34155 2.11440 
0.16198 -0.42021 2.31210 
0.40114 0.21425 2.17207 
0.03667 0.09509 2.85467 
-0.23006 -0.45804 2.07768 
-0.37245 -0.32062 2.26113 
-1.54478 0.48204 1.14516 
-1.72732 0.77115 0.67360 
-1.44228 0.77953 1.11581 
-1.53573 0.92755 0.87436 
-1.72813 0.32221 0.93821 
-1.82135 0.46976 0.69757 
-1.54812 -0.47739 1.14363 
[...]
CELL_DATA 1999
SCALARS Strain double 
LOOKUP_TABLE default 
-0.08527
-0.08965
-0.08687
-0.08609
-0.09055
-0.08796
-0.08733
-0.08756
-0.08774
-0.08719
-0.08815
-0.08758
-0.08793
-0.08775
-0.08801
-0.08844
-0.08779
-0.08841
-0.08730
-0.08754
-0.08728
-0.08815
-0.08778
-0.08771
-0.08733
-0.09014
-0.08823
-0.08665
-0.09054
-0.08755
-0.09614
-0.07781
-0.07972
-0.09464
-0.07756
-0.10261
-0.10261
-0.06986
-0.07382
-0.07260
-0.08743
-0.08766
-0.08751
-0.08751
-0.08752
-0.08756
-0.08753
-0.08745
-0.08747
-0.08755
-0.08806
-0.08801
-0.08700
-0.08720
-0.08877
-0.08739
-0.08874
-0.08744
-0.08801
-0.08829
-0.03410
-0.03444
0.06873
0.06926
0.06944
0.06882
-0.03553
-0.03519
0.06873
0.07048
0.06955
0.06841
-0.02630
-0.03775
0.07875
0.05239
0.06808
0.08802
-0.02998
-0.05483
0.04634
0.09215
0.10863
0.07626
-0.03703
-0.03596
0.06842
0.07453
0.07210
0.06686
-0.03385
-0.03389
0.06959
0.06875
0.06880
0.06957
-0.03404
-0.03401
0.06915
0.06987
0.06983
0.06927
-0.03418
-0.03414
0.06987
0.06940
0.06943
0.06984
-0.03375
-0.03389
0.06913
0.06952
0.06940
0.06921
-0.03479
-0.03491
0.06899
0.06946
0.06952
0.06905
-0.03380
-0.03336
0.06767
0.06828
0.06874
0.06731
-0.03460
-0.03454
0.06966
0.06961
0.06951
0.06969
-0.03392
-0.03383
0.06919
0.06901
0.06885
0.06911
-0.03686
-0.03792
0.07055
0.06874
0.06997
0.07167
-0.03368
-0.03419
0.06987
0.06661
0.06643
0.07001
-0.03418
-0.03418
0.06922
0.06953
0.06941
0.06936
-0.03508
-0.03512
0.06849
0.06984
0.06975
0.06837
-0.03417
-0.03411
0.06928
0.06973
0.06980
0.06938
-0.03418
-0.03414
0.06989
0.06921
0.06932
0.06990
-0.03366
-0.03363
0.06925
0.06876
0.06856
0.06916
-0.02675
-0.05121
0.08275
0.07323
0.04545
0.09573
-0.02805
-0.03603
0.05687
0.06968
0.07348
0.06633
-0.03534
-0.03570
0.06877
0.06795
0.06789
0.06900
-0.07356
0.00577
0.06388
0.03048
0.04214
-0.03054
-0.03105
0.07220
0.06326
0.06291
0.07215
-0.03000
-0.03151
0.06608
0.06673
0.06485
0.06769
-0.03395
-0.03394
0.06949
0.06955
0.06956
0.06949
-0.03394
-0.03389
0.06963
0.06935
0.06938
0.06950
-0.03425
-0.03430
0.06985
0.06929
0.06935
0.06981
-0.03556
-0.03545
0.07030
0.06908
0.06920
0.06997
-0.06415
-0.04434
0.07808
0.07883
0.03319
0.03231
-0.06733
-0.04633
0.07818
0.08222
0.03516
0.03269
-0.06506
-0.04483
0.08356
0.07509
0.03198
0.03825
-0.06391
-0.04395
0.07328
0.08607
0.04057
0.02803
-0.06897
-0.04826
0.07892
0.08442
0.03685
0.03333
-0.06609
-0.04542
0.08012
0.07971
0.03408
0.03443
-0.06534
-0.04467
0.08007
0.07922
0.03349
0.03429
-0.06558
-0.04490
0.07935
0.08028
0.03455
0.03386
-0.06575
-0.04505
0.08030
0.07959
0.03403
0.03460
-0.06517
-0.04452
0.07968
0.07951
0.03382
0.03399
-0.06636
-0.04585
0.07940
0.07930
0.03385
0.03411
-0.06551
-0.04477
0.07917
0.07958
0.03385
0.03347
-0.06607
-0.04551
0.07921
0.07969
0.03403
0.03360
-0.06569
-0.04486
0.07895
0.07911
0.03317
0.03294
-0.06610
-0.04545
0.07966
0.07974
0.03421
0.03409
-0.06656
-0.04586
0.07976
0.07959
0.03396
0.03414
-0.06568
-0.04487
0.07994
0.07900
0.03311
0.03401
-0.06695
-0.04690
0.08042
0.07872
0.03376
0.03531
-0.06513
-0.04437
0.07950
0.07809
0.03216
0.03329
-0.06560
-0.04498
0.07957
0.07920
0.03372
0.03399
-0.06528
-0.04462
0.07956
0.07928
0.03353
0.03389
-0.06637
-0.04583
0.07960
0.08002
0.03444
0.03400
-0.06578
-0.04506
0.07941
0.08024
0.03451
0.03391
-0.06573
-0.04505
0.08027
0.07932
0.03386
0.03460
-0.06529
-0.04456
0.07985
0.07912
0.03328
0.03402
-0.06898
-0.04882
0.08065
0.07913
0.03384
0.03544
-0.06646
-0.04593
0.08025
0.07714
0.03179
0.03433
-0.06408
-0.04256
0.07812
0.07753
0.02859
0.03000
-0.06955
-0.04893
0.08073
0.07811
0.03189
0.03554
-0.06543
-0.04519
0.07702
0.07809
0.03231
0.03169
-0.06292
-0.04232
0.07640
0.08563
0.03737
0.02960
-0.06165
-0.04319
0.07678
0.07645
0.03282
0.03320
-0.06697
-0.04586
0.07816
0.08084
0.03568
0.03290
-0.05211
-0.04653
0.08432
0.05399
0.02738
0.04512
-0.04274
0.09152
0.13217
0.11398
0.02573
0.02584
-0.05768
-0.04895
0.06489
0.08632
0.04479
0.03502
-0.06537
-0.04003
0.08380
0.07193
0.02287
0.03495
-0.03008
0.14491
0.13060
0.02624
0.02674
-0.06172
-0.04132
0.08322
0.07144
0.02789
0.03916
-0.05677
-0.03899
0.07458
0.07061
0.03019
0.03322
-0.06545
-0.04481
0.07995
0.07968
0.03391
0.03432
-0.06582
-0.04527
0.07989
0.08000
0.03434
0.03417
-0.06560
-0.04499
0.07996
0.07971
0.03392
0.03422
-0.06554
-0.04490
0.07984
0.07982
0.03407
0.03426
-0.06549
-0.04480
0.07977
0.07988
0.03422
0.03414
-0.06559
-0.04495
0.07981
0.07998
0.03434
0.03413
-0.06558
-0.04494
0.07974
0.08004
0.03437
0.03401
-0.06545
-0.04477
0.07984
0.07979
0.03414
0.03417
-0.06550
-0.04482
0.07991
0.07978
0.03411
0.03417
-0.06564
-0.04503
0.08003
0.07978
0.03410
0.03435
-0.06638
-0.04614
0.08108
0.07765
0.03299
0.03657
-0.06584
-0.04493
0.08033
0.07922
0.03350
0.03435
-0.06433
-0.04276
0.07670
0.08048
0.03439
0.03058
-0.06527
-0.04467
0.07924
0.07967
0.03415
0.03363
-0.06706
-0.04645
0.08048
0.07973
0.03428
0.03463
-0.06524
-0.04448
0.07909
0.07906
0.03334
0.03352
-0.06717
-0.04667
0.07915
0.07958
0.03417
0.03375
-0.06503
-0.04355
0.07874
0.07835
0.03182
0.03204
-0.06596
-0.04521
0.07918
0.08010
0.03453
0.03367
-0.06660
-0.04613
0.07895
0.08016
0.03476
0.03365
0.07116
0.07116
0.01978
0.02061
0.01692
0.01679
0.07158
0.07138
0.01874
0.02180
0.01775
0.01575
0.07209
0.07212
0.02036
0.01978
0.01667
0.01715
0.07143
0.07153
0.02065
0.02020
0.01726
0.01734
0.07445
0.07680
0.01991
0.01655
0.01550
0.01511
0.07155
0.07131
0.02026
0.02012
0.01687
0.01714
0.07063
0.07040
0.02090
0.01926
0.01588
0.01829
0.08068
0.07290
0.02486
0.02618
0.01794
0.02219
0.07029
0.07049
0.02274
0.01912
0.01542
0.01891
0.11029
0.15301
0.03950
0.02575
0.08840
0.02557
0.08593
0.08064
0.01397
0.01892
0.01006
0.01564
0.14492
0.11944
0.09364
0.02612
0.09064
0.02607
0.07599
0.07530
0.02627
0.01272
0.00896
0.02416
0.07317
0.07239
0.01989
0.01957
0.01604
0.01712
0.06767
0.06635
0.02453
0.02040
0.01673
0.02313
0.07140
0.07153
0.02058
0.02083
0.01760
0.01741
0.07209
0.07213
0.01983
0.02064
0.01754
0.01672
0.07240
0.07240
0.02027
0.02039
0.01726
0.01717
0.07228
0.07220
0.02010
0.02064
0.01743
0.01681
0.07188
0.07196
0.02067
0.02052
0.01731
0.01751
0.07189
0.07188
0.02088
0.02033
0.01718
0.01765
0.07198
0.07202
0.02068
0.02044
0.01723
0.01751
0.07230
0.07224
0.02045
0.02041
0.01721
0.01729
0.07177
0.07182
0.02055
0.02062
0.01757
0.01732
0.07139
0.07129
0.02037
0.01912
0.01579
0.01724
0.07194
0.07196
0.01994
0.02040
0.01718
0.01680
0.07209
0.07219
0.02018
0.01856
0.01558
0.01675
0.07158
0.07163
0.02043
0.02017
0.01710
0.01723
0.06996
0.06964
0.01913
0.02110
0.01742
0.01635
0.07218
0.07212
0.02043
0.02012
0.01685
0.01723
0.07193
0.07236
0.01908
0.02050
0.01757
0.01548
0.07166
0.07179
0.02025
0.02044
0.01738
0.01706
0.07121
0.07110
0.01983
0.02079
0.01762
0.01670
0.07163
0.07169
0.02026
0.02075
0.01749
0.01716
0.06989
0.06900
0.02220
0.01913
0.01528
0.01942
0.07257
0.07245
0.02010
0.01825
0.01521
0.01680
0.07595
0.07907
0.02181
0.01261
0.01400
0.01327
0.07325
0.07400
0.01663
0.02004
0.01908
0.01219
0.07201
0.07214
0.02048
0.02031
0.01708
0.01724
0.07212
0.07193
0.02033
0.01941
0.01602
0.01718
0.07079
0.07086
0.02050
0.01877
0.01580
0.01705
0.07236
0.07239
0.02032
0.02028
0.01718
0.01722
0.07197
0.07203
0.02063
0.02045
0.01724
0.01749
0.07159
0.07144
0.02094
0.02029
0.01712
0.01778
0.07191
0.07197
0.02069
0.02048
0.01727
0.01751
0.07241
0.07240
0.02025
0.02038
0.01716
0.01699
0.07086
0.07064
0.01970
0.02048
0.01725
0.01671
0.07167
0.07172
0.01997
0.02092
0.01779
0.01690
0.07872
0.09050
0.01245
0.01737
0.01570
0.00318
0.12436
-0.17113
0.09060
0.02587
0.08356
0.02591
0.07089
0.07049
0.01728
0.02007
0.01650
0.01434
0.08783
0.10123
0.03996
0.02592
0.07234
0.02568
0.06674
0.06727
0.02163
0.01895
0.01682
0.01844
0.07151
0.07075
0.02049
0.01747
0.01402
0.01792
0.06582
0.06653
0.02467
0.02007
0.01746
0.02038
0.07408
0.07338
0.01684
0.02076
0.01765
0.01385
0.07095
0.07137
0.01774
0.02162
0.01930
0.01416
0.07189
0.07188
0.02041
0.02067
0.01752
0.01716
0.07190
0.07180
0.01996
0.02081
0.01756
0.01680
0.07231
0.07235
0.02001
0.02014
0.01708
0.01682
0.06930
0.07015
-0.00724
-0.00822
0.07430
-0.00391
-0.00675
0.06616
-0.00858
-0.00244
0.07481
-0.00249
-0.01056
-0.00314
-0.00560
0.07134
0.07103
-0.00563
-0.00538
0.07059
-0.00630
-0.00564
0.07152
-0.00537
-0.00602
0.07078
-0.00584
-0.00529
-0.00614
-0.00589
0.07059
0.07069
-0.00587
-0.00593
0.07067
-0.00625
-0.00633
0.07044
0.07093
-0.00590
-0.00628
-0.00659
-0.00647
-0.00571
-0.00599
0.07076
0.07094
-0.00567
-0.00577
0.07137
0.07014
-0.00683
-0.00576
0.07006
-0.00612
-0.00507
-0.00714
-0.00673
-0.00646
-0.00590
0.07098
0.07057
-0.00640
-0.00595
0.07118
-0.00546
-0.00565
0.07146
-0.00538
-0.00599
0.07048
-0.00605
-0.00534
-0.00650
-0.00585
0.07165
0.06924
-0.00651
-0.00446
0.06784
-0.00860
-0.00559
0.06970
-0.00944
-0.00931
0.07078
-0.00529
-0.00546
-0.00692
-0.00919
0.06453
0.09097
-0.00250
-0.01829
0.06378
-0.00613
-0.00633
0.06163
-0.00584
-0.00062
0.08887
-0.01619
-0.02960
-0.02409
-0.01921
0.09796
0.06374
-0.02877
-0.00966
0.09398
0.06427
-0.02087
-0.00005
-0.03175
-0.02968
0.05530
-0.00676
-0.00199
-0.01048
-0.00454
0.07112
0.07100
-0.00592
-0.00565
0.07119
-0.00558
-0.00571
0.07100
-0.00592
-0.00567
0.07114
-0.00575
-0.00570
-0.00564
-0.00573
0.07109
0.07115
-0.00561
-0.00570
0.07103
0.07121
-0.00559
-0.00580
-0.00575
-0.00572
0.07104
-0.00576
-0.00573
-0.00575
-0.00561
0.07181
0.06933
-0.00659
-0.00434
0.07022
-0.00644
-0.00541
0.07138
-0.00606
-0.00799
0.07096
-0.00591
-0.00662
-0.00532
-0.00532
0.07065
0.07013
-0.00684
-0.00626
0.07066
-0.00562
-0.00575
0.06999
-0.00751
-0.00701
0.07130
-0.00542
-0.00642
-0.00530
-0.00628
0.05584
0.05510
0.07596
0.07658
0.05594
0.05638
0.07743
0.07692
-0.01497
-0.01594
0.04939
-0.01463
-0.01547
0.04857
-0.01655
0.04921
-0.01631
0.04955
0.05660
0.05530
0.07597
0.07843
0.05574
0.05661
0.07698
0.07647
-0.01546
-0.01694
0.04935
-0.01605
-0.01820
0.04794
-0.01669
0.04919
-0.01721
0.05075
0.04821
0.05233
0.07838
0.07653
0.06028
0.05923
0.07507
0.07979
-0.01720
-0.01434
0.04758
0.01029
-0.01407
0.02898
-0.01672
0.05289
-0.02418
0.01554
0.06227
0.04460
0.07073
0.08580
0.08139
0.06361
0.07006
0.08544
0.00570
-0.01299
0.04150
-0.02640
-0.01633
0.04998
-0.05701
0.00254
-0.02476
0.05953
0.05902
0.05475
0.07629
0.08212
0.05496
0.05993
0.07914
0.07471
-0.01659
-0.01834
0.05092
-0.01668
-0.02016
0.04512
-0.01737
0.04905
-0.01720
0.05561
0.05557
0.05643
0.07743
0.07657
0.05621
0.05559
0.07650
0.07717
-0.01451
-0.01589
0.04890
-0.01595
0.04953
-0.01431
-0.01567
0.04975
-0.01577
0.04899
0.05669
0.05603
0.07683
0.07767
0.05600
0.05657
0.07747
0.07705
-0.01449
-0.01591
0.04997
-0.01457
-0.01600
0.04947
-0.01585
0.04921
-0.01593
0.04993
0.05620
0.05671
0.07768
0.07708
0.05658
0.05624
0.07720
0.07749
-0.01467
-0.01612
0.04957
-0.01467
-0.01610
0.05000
-0.01603
0.04993
-0.01603
0.04956
0.05611
0.05610
0.07700
0.07701
0.05578
0.05634
0.07749
0.07682
-0.01445
-0.01571
0.04963
-0.01609
0.04892
-0.01427
-0.01558
0.04947
-0.01579
0.04960
0.05625
0.05578
0.07666
0.07715
0.05591
0.05629
0.07727
0.07688
-0.01577
-0.01701
0.04963
-0.01500
-0.01630
0.04914
-0.01732
0.04911
-0.01650
0.04958
0.05525
0.05457
0.07583
0.07651
0.05443
0.05543
0.07548
0.07463
-0.01381
-0.01558
0.04832
-0.01473
0.04780
-0.01464
-0.01608
0.04786
-0.01589
0.04870
0.05639
0.05640
0.07728
0.07721
0.05650
0.05632
0.07733
0.07745
-0.01510
-0.01655
0.04982
-0.01640
0.04980
-0.01507
-0.01650
0.04972
-0.01639
0.04960
0.05543
0.05603
0.07713
0.07658
0.05580
0.05594
0.07680
0.07675
-0.01434
-0.01586
0.04850
-0.01441
-0.01591
0.04932
-0.01569
0.04922
-0.01572
0.04938
0.05611
0.05800
0.07813
0.07616
0.05673
0.05702
0.07807
0.07798
-0.01729
-0.01803
0.04997
-0.01791
-0.01825
0.05232
-0.01893
0.04969
-0.02132
0.04775
0.05375
0.05593
0.07714
0.07476
0.05732
0.05328
0.07452
0.07870
-0.01506
-0.01605
0.04735
-0.01715
0.05006
-0.01372
-0.01481
0.04918
-0.01645
0.04575
0.05614
0.05615
0.07695
0.07693
0.05603
0.05633
0.07735
0.07711
-0.01466
-0.01604
0.04959
-0.01605
0.04926
-0.01475
-0.01614
0.04962
-0.01612
0.04957
0.05662
0.05575
0.07671
0.07748
0.05464
0.05652
0.07760
0.07536
-0.01539
-0.01679
0.05000
-0.01674
0.04812
-0.01582
-0.01707
0.04904
-0.01731
0.04972
0.05661
0.05611
0.07692
0.07761
0.05615
0.05650
0.07737
0.07718
-0.01465
-0.01611
0.04985
-0.01599
0.04940
-0.01466
-0.01611
0.04954
-0.01600
0.04989
0.05606
0.05675
0.07768
0.07685
0.05661
0.05609
0.07711
0.07755
-0.01465
-0.01609
0.04948
-0.01470
-0.01612
0.05009
-0.01601
0.04993
-0.01605
0.04933
0.05536
0.05609
0.07716
0.07649
0.05579
0.05559
0.07635
0.07670
-0.01434
-0.01579
0.04848
-0.01409
-0.01551
0.04939
-0.01571
0.04925
-0.01549
0.04909
0.04322
0.04918
0.07624
0.07343
0.05634
0.07704
0.08376
0.06176
-0.02287
-0.01305
0.04783
-0.02173
0.05321
0.00717
-0.01337
0.02394
-0.05262
0.00543
0.04118
0.05012
0.08336
0.07046
0.05705
0.05337
0.06844
0.07044
0.00535
-0.02220
0.01404
-0.01567
-0.01461
0.04602
-0.02140
0.02351
-0.01518
0.04865
0.05424
0.05544
0.07544
0.07470
0.05604
0.05528
0.07615
0.07702
-0.01545
-0.01630
0.04792
-0.01711
0.04923
-0.01681
-0.01786
0.04894
-0.01842
0.04879
-0.17267
-0.03469
0.31291
-0.14723
-0.03690
0.01817
0.10527
-0.11227
0.08773
0.10613
0.18854
-0.20134
0.04919
0.06030
0.08115
0.06945
0.05759
0.05121
0.07252
0.07869
-0.00984
-0.01148
0.04237
-0.01219
0.05090
-0.01305
-0.01468
0.05280
-0.01467
0.04468
0.05277
0.05469
0.07314
0.07082
0.05342
0.05306
0.07535
0.07550
-0.01217
-0.01261
0.04800
-0.01462
0.04580
-0.01173
-0.01208
0.04877
-0.01420
0.04564
0.05636
0.05629
0.07721
0.07730
0.05629
0.05634
0.07727
0.07722
-0.01442
-0.01583
0.04966
-0.01582
0.04960
-0.01443
-0.01584
0.04960
-0.01582
0.04965
0.05623
0.05633
0.07736
0.07718
0.05639
0.05603
0.07692
0.07717
-0.01450
-0.01593
0.04953
-0.01585
0.04985
-0.01438
-0.01582
0.04957
-0.01573
0.04937
0.05619
0.05656
0.07752
0.07716
0.05669
0.05601
0.07685
0.07755
-0.01485
-0.01618
0.04947
-0.01632
0.05007
-0.01476
-0.01609
0.04989
-0.01623
0.04937
0.05613
0.05680
0.07804
0.07705
0.05703
0.05589
0.07660
0.07766
-0.01683
-0.01838
0.04942
-0.01800
0.05094
-0.01544
-0.01688
0.04998
-0.01677
0.04935
-0.01642
-0.01838
-0.01578
-0.01970
0.08426
0.08479
-0.01901
-0.01830
0.08746
-0.01420
-0.01377
0.08059
-0.01737
-0.02171
0.09279
-0.01779
-0.01708
-0.01760
-0.01684
0.08581
0.08530
-0.01685
-0.01712
0.08502
-0.01724
-0.01738
0.08603
-0.01733
-0.01675
0.08537
-0.01778
-0.01721
-0.01823
-0.01711
0.08497
0.08450
-0.01705
-0.01778
0.08556
-0.01807
-0.01731
-0.01745
-0.01772
0.08493
0.08549
-0.01862
-0.01710
-0.01781
-0.01721
0.08559
0.08523
-0.01726
-0.01868
-0.01723
-0.01730
0.08585
0.08510
-0.01874
-0.01619
0.08359
-0.01688
-0.01794
-0.01686
-0.01737
0.08508
0.08515
-0.01811
-0.01704
0.08568
-0.01739
-0.01735
0.08600
-0.01733
-0.01676
0.08502
-0.02010
-0.01788
-0.02205
-0.01534
0.08615
0.08617
-0.01852
-0.01714
0.08356
-0.01618
-0.02239
0.08809
-0.02026
-0.01710
0.08192
-0.01716
-0.01523
0.00087
-0.05881
0.08348
0.07231
-0.01691
-0.01911
0.08354
-0.02087
-0.01813
0.08910
0.02243
-0.07261
0.00420
0.02389
-0.08902
-0.02264
-0.01505
0.01490
0.09112
0.00324
-0.06343
-0.01777
-0.01309
0.05432
0.07965
-0.01662
-0.01266
0.07851
-0.01703
-0.01749
-0.01710
-0.01705
0.08574
0.08548
-0.01749
-0.01721
0.08576
-0.01726
-0.01714
0.08558
-0.01718
-0.01708
0.08559
-0.01720
-0.01703
-0.01722
-0.01715
0.08557
0.08577
-0.01718
-0.01702
-0.01722
-0.01731
0.08551
0.08588
-0.01704
-0.01724
0.08551
-0.01814
-0.01761
-0.01788
-0.01470
0.08640
0.08175
-0.01717
-0.01698
0.08521
-0.01633
-0.01961
0.08678
-0.01686
-0.01809
0.08542
-0.01694
-0.01839
-0.01675
-0.01761
0.08456
0.08509
-0.01943
-0.01668
0.08484
-0.01625
-0.01891
0.08454
-0.01755
-0.01791
0.08589
0.04792
0.04825
0.04777
0.04810
0.04747
0.04881
0.05051
0.04650
0.04682
0.10365
-0.02886
-0.02174
0.05685
0.04942
0.04195
0.04783
0.04851
0.04864
0.04868
0.04828
0.04836
0.04831
0.04868
0.04824
0.04764
0.04849
0.04641
0.04831
0.04793
0.04841
0.04814
0.04702
0.04878
0.04822
0.04808
0.04849
0.04483
0.05197
0.04761
0.04823
0.04781
0.04696
0.04866
0.04835
0.04830
0.04795
0.04883
0.04816
0.10984
-0.04040
-0.03902
0.04770
0.04414
0.04771
0.04384
0.05054
0.04797
0.04812
0.04821
0.04866
0.10698
0.22029
-0.08611
0.11158
-0.20773
-0.10413
-0.15598
-0.06294
-0.00207
0.25087
-0.04990
-0.13300
0.04365
0.10839
-0.09537
-0.06009
-0.06644
-0.18638
0.22777
-0.07363
0.11514
-0.07039
0.15718
0.05183
-0.09978
0.03827
0.00975
-0.04855
-0.07982
0.09505
0.01324
-0.07667
-0.07941
0.03206
0.04244
0.09742
-0.17878
-0.20676
-0.28234
0.17310
0.03207
0.09146
-0.03518
-0.12815
0.14793
-0.09911
-0.01495
-0.09346
-0.12837
-0.14596
0.09605
0.12771
-0.06568
0.03758
0.06141
0.00294
-0.02852
0.11573
-0.05287
-0.08032
-0.13709
0.00201
0.06611
0.07920
0.11108
-0.19963
0.22862
-0.15332
-0.03402
-0.00912
-0.16942
-0.03097
-0.15505
0.02054
-0.10134
-0.00083
0.00269
0.00008
-0.16390
0.01685
-0.18014
0.02694
-0.20666
-0.09821
-0.18723
-0.09494
0.10000
