# vtk DataFile Version 3.0
Point representing Sub_cellular elem model
ASCII

DATASET UNSTRUCTURED_GRID
POINTS 704 float
-0.00015 1.72824 0.81504 
0.00622 1.73613 -1.33759 
1.74193 1.07010 -0.25263 
1.74368 -1.08119 -0.25502 
0.00459 -1.74823 -1.33656 
-0.00440 -1.74279 0.81031 
1.07517 -0.00516 1.49355 
-1.07645 -0.00583 1.48356 
1.08402 -0.00642 -1.99669 
-1.06943 -0.00595 -2.00499 
-1.73958 1.07238 -0.26852 
-1.74166 -1.08088 -0.26771 
0.00314 2.04565 -0.26123 
1.02396 1.65020 0.37949 
0.62637 1.00966 1.41739 
-0.63459 1.01385 1.40153 
-1.02381 1.65333 0.36786 
1.03096 1.65444 -0.89094 
0.64212 1.02004 -1.91829 
-0.62699 1.02059 -1.92326 
-1.02207 1.65628 -0.89995 
2.05381 -0.00445 -0.25253 
1.65406 0.62910 0.77489 
1.66643 0.62846 -1.28014 
1.03039 -1.66713 -0.89162 
1.02514 -1.66549 0.37314 
1.65889 -0.63686 0.76871 
1.66643 -0.64023 -1.28025 
0.00007 -2.05866 -0.26204 
0.64143 -1.03271 -1.91746 
-0.62784 -1.03264 -1.92223 
-1.02440 -1.66688 -0.89879 
0.63292 -1.03196 1.39395 
-0.63396 -1.02351 1.40290 
-1.02806 -1.66293 0.36857 
0.03196 0.49230 2.17642 
-1.65873 0.62907 0.75668 
-1.65998 -0.63675 0.75731 
0.00839 -0.00647 -2.31128 
-1.65659 0.62971 -1.29363 
-1.65732 -0.63990 -1.29305 
-2.05209 -0.00393 -0.26952 
0.00145 1.96144 0.31022 
0.52190 1.75888 0.63702 
0.32040 1.43315 1.16132 
-0.32388 1.43480 1.15570 
-0.52171 1.76101 0.63050 
0.00480 1.96602 -0.83282 
0.52928 1.76580 -1.15403 
0.33078 1.44214 -1.67797 
-0.31660 1.44254 -1.68055 
-0.51808 1.76672 -1.15847 
1.44653 1.41062 0.07026 
1.45072 1.41201 -0.57783 
1.97209 0.56621 -0.25209 
1.76824 0.88878 0.27165 
1.77513 0.88922 -0.77662 
1.97334 -0.57581 -0.25358 
1.45143 -1.42425 -0.57960 
1.44881 -1.42341 0.06589 
1.77152 -0.89862 0.26759 
1.77576 -0.90042 -0.77762 
0.52790 -1.77832 -1.15365 
0.00256 -1.97833 -0.83242 
0.32965 -1.45453 -1.67693 
-0.31788 -1.45451 -1.67930 
-0.52009 -1.77821 -1.15734 
0.52011 -1.77514 0.63068 
-0.00245 -1.97539 0.30773 
0.31875 -1.45027 1.15036 
-0.32822 -1.44724 1.15145 
-0.52673 -1.77272 0.62913 
0.89042 0.51528 1.53207 
1.41226 0.31973 1.19723 
1.41706 -0.32580 1.19010 
0.90102 -0.53340 1.50985 
0.57719 -0.02130 1.75046 
-0.89677 0.51715 1.51258 
-0.89740 -0.52852 1.51459 
-0.56676 -0.00948 1.75180 
-1.41734 0.31775 1.17992 
-1.41769 -0.32711 1.18024 
0.90286 0.51705 -2.02766 
1.42549 0.31734 -1.70247 
1.42537 -0.32976 -1.70231 
0.90254 -0.52990 -2.02722 
0.57962 -0.00651 -2.22816 
-0.88760 0.51761 -2.03460 
-0.88802 -0.52966 -2.03405 
-0.56340 -0.00627 -2.23254 
-1.41277 0.31815 -1.71358 
-1.41307 -0.32929 -1.71326 
-1.44573 1.41350 0.05579 
-1.44505 1.41440 -0.59088 
-1.76996 0.89048 0.25435 
-1.76896 0.89102 -0.79179 
-1.97033 0.56764 -0.26934 
-1.44743 -1.42393 -0.58981 
-1.44887 -1.42224 0.05678 
-1.77200 -0.89817 0.25505 
-1.77030 -0.90024 -0.79107 
-1.97142 -0.57566 -0.26891 
0.55755 1.94205 0.04738 
-0.55364 1.94394 0.04156 
0.56014 1.94455 -0.56424 
-0.55245 1.94596 -0.56940 
0.89401 1.38135 0.95318 
1.05235 1.75467 -0.25581 
1.38863 1.19685 0.64845 
-0.00197 1.04038 1.50974 
1.19660 0.89135 1.14593 
0.30090 0.52338 1.74679 
-0.89842 1.38463 0.93959 
-0.29558 0.53714 1.72971 
-1.20422 0.89253 1.12717 
-1.04773 1.75730 -0.26601 
-1.39239 1.19928 0.63198 
0.90703 1.38872 -1.46311 
1.40020 1.19992 -1.15535 
0.00794 1.04466 -2.02234 
1.21297 0.89417 -1.65030 
0.31389 0.54995 -2.20921 
-0.89452 1.38983 -1.47047 
-0.29733 0.55014 -2.21156 
-1.19996 0.89520 -1.65991 
-1.39045 1.20157 -1.16704 
1.94853 0.30153 0.30410 
1.95496 0.30022 -0.80912 
1.94999 -0.30869 0.30253 
1.95523 -0.31080 -0.80947 
1.75835 -0.00238 0.79672 
1.76817 -0.00582 -1.30423 
1.05235 -1.76837 -0.25863 
1.40006 -1.21205 -1.15563 
0.55853 -1.95781 -0.56523 
0.90623 -1.40118 -1.46263 
1.39361 -1.20987 0.63988 
0.55574 -1.95670 0.04423 
0.89756 -1.39877 0.94048 
1.20518 -0.90490 1.13058 
1.21255 -0.90662 -1.64990 
-0.55550 -1.95740 -0.56879 
-0.55784 -1.95556 0.04138 
0.00715 -1.05720 -2.02132 
0.31351 -0.56286 -2.20865 
-0.89597 -1.40111 -1.46924 
-0.29774 -0.56279 -2.21097 
-1.20083 -0.90644 -1.65903 
-1.05116 -1.76743 -0.26509 
-1.39194 -1.21191 -1.16600 
-0.00399 -1.05714 1.49814 
0.30244 -0.56547 1.71424 
-0.90174 -1.39348 0.94037 
-0.30432 -0.55878 1.72912 
-1.20472 -0.90133 1.12864 
-1.39518 -1.20740 0.63303 
-1.76119 -0.00374 0.78063 
-1.95029 0.30174 0.28647 
-1.95098 -0.30898 0.28675 
-1.75866 -0.00506 -1.31819 
-1.94911 0.30131 -0.82521 
-1.94956 -0.31031 -0.82496 
0.00066 1.86121 0.57377 
0.26013 1.76013 0.73670 
0.15971 1.59762 0.99751 
-0.16152 1.59834 0.99515 
-0.26005 1.76123 0.73339 
0.00555 1.86773 -1.09644 
0.26704 1.76780 -1.25656 
0.16807 1.60644 -1.51774 
-0.15465 1.60668 -1.51905 
-0.25510 1.76825 -1.25873 
1.61147 1.25044 -0.09161 
1.61362 1.25093 -0.41462 
1.87349 0.82931 -0.25222 
1.77197 0.99006 0.00877 
1.77544 0.99045 -0.51379 
1.87509 -0.83965 -0.25428 
1.61495 -1.26264 -0.41679 
1.61361 -1.26220 -0.09485 
1.77442 -1.00065 0.00566 
1.77658 -1.00151 -0.51545 
0.26548 -1.78013 -1.25578 
0.00364 -1.87987 -1.09564 
0.16669 -1.61869 -1.51668 
-0.15613 -1.61867 -1.51785 
-0.25691 -1.78008 -1.25764 
0.25685 -1.77578 0.73108 
-0.00355 -1.87555 0.57023 
0.15637 -1.61323 0.99038 
-0.16605 -1.61211 0.99028 
-0.26489 -1.77442 0.73035 
0.99616 0.25416 1.53020 
1.25376 0.15718 1.36216 
1.25733 -0.16371 1.35662 
1.00372 -0.26736 1.51729 
0.83703 -0.00954 1.63317 
-1.00142 0.25422 1.51358 
-1.00252 -0.26573 1.51425 
-0.83520 -0.00532 1.62741 
-1.25788 0.15482 1.34690 
-1.25833 -0.16534 1.34698 
1.00416 0.25453 -2.02892 
1.26472 0.15496 -1.86686 
1.26465 -0.16763 -1.86674 
1.00402 -0.26740 -2.02870 
0.84303 -0.00648 -2.12889 
-0.98915 0.25505 -2.03661 
-0.98936 -0.26704 -2.03634 
-0.82750 -0.00612 -2.13531 
-1.25095 0.15558 -1.87660 
-1.25110 -0.16714 -1.87644 
-1.60999 1.25301 -0.10690 
-1.60967 1.25333 -0.42929 
-1.77171 0.99219 -0.00785 
-1.77121 0.99253 -0.52945 
-1.87149 0.83124 -0.26898 
-1.61195 -1.26232 -0.42833 
-1.61259 -1.26157 -0.10597 
-1.77384 -1.00024 -0.00711 
-1.77291 -1.00133 -0.52869 
-1.87309 -0.83946 -0.26836 
0.00228 2.02382 0.02905 
0.00399 2.02617 -0.55156 
0.28705 2.01884 -0.11133 
-0.28178 2.01979 -0.11421 
0.28812 2.02008 -0.40831 
-0.28107 2.02090 -0.41103 
0.77918 1.72207 0.51684 
1.24875 1.54537 0.22899 
0.80496 1.81807 0.21363 
0.97695 1.53132 0.67682 
1.04517 1.72739 0.06645 
1.21708 1.44141 0.52933 
0.47908 1.23682 1.30146 
0.76502 0.76920 1.49447 
0.77487 1.20682 1.20190 
0.32219 1.03440 1.48711 
0.92147 0.96939 1.29693 
0.46367 0.78380 1.59780 
-0.48480 1.23978 1.29117 
-0.77393 0.77319 1.47445 
-0.32796 1.03768 1.47766 
-0.78155 1.21025 1.18718 
-0.46985 0.79075 1.58100 
-0.93013 0.97217 1.27850 
-0.77903 1.72491 0.50747 
-1.24840 1.54847 0.21570 
-0.80277 1.82074 0.20488 
-0.97905 1.53455 0.66427 
-1.04278 1.73033 0.05561 
-1.21906 1.44450 0.51503 
0.78663 1.72779 -1.03098 
1.25463 1.54806 -0.73830 
0.80954 1.82165 -0.72779 
1.04872 1.72959 -0.57804 
0.98718 1.53731 -1.18787 
1.22661 1.44552 -1.03830 
0.49048 1.24477 -1.81300 
0.78101 0.77492 -1.99058 
0.78986 1.21537 -1.70903 
0.32975 1.03926 -1.99512 
0.93843 0.97514 -1.79989 
0.47833 0.79899 -2.08589 
-0.47572 1.24527 -1.81682 
-0.76571 0.77549 -1.99660 
-0.31406 1.03954 -1.99762 
-0.77590 1.21618 -1.71527 
-0.46233 0.79934 -2.08953 
-0.92421 0.97594 -1.80723 
-0.77645 1.72918 -1.03772 
-1.24728 1.55025 -0.74944 
-0.80124 1.82339 -0.73505 
-1.04191 1.73183 -0.58765 
-0.97639 1.53876 -1.19615 
-1.21721 1.44731 -1.04875 
2.03303 0.28547 -0.25221 
2.03371 -0.29455 -0.25299 
2.02624 0.14427 0.03232 
2.02944 0.14345 -0.53720 
2.02676 -0.15221 0.03176 
2.02967 -0.15324 -0.53747 
1.72860 0.76728 0.52972 
1.54733 0.47846 0.99966 
1.53642 0.92368 0.73017 
1.44337 0.77573 0.97113 
1.82340 0.46590 0.55332 
1.73091 0.31837 0.79296 
1.73858 0.76737 -1.03480 
1.56094 0.47686 -1.50502 
1.54899 0.92501 -1.23573 
1.45809 0.77649 -1.47615 
1.83294 0.46457 -1.05856 
1.74215 0.31597 -1.29902 
1.25467 -1.56063 -0.73955 
0.78558 -1.74044 -1.03109 
1.04840 -1.74269 -0.57966 
1.22632 -1.45790 -1.03875 
0.80853 -1.83467 -0.72867 
0.98645 -1.54980 -1.18786 
1.25076 -1.55942 0.22350 
0.77901 -1.73820 0.51018 
1.04565 -1.74184 0.06209 
1.22032 -1.45606 0.52149 
0.80439 -1.83326 0.20897 
0.97917 -1.54757 0.66779 
1.73274 -0.77614 0.52459 
1.55248 -0.48515 0.99264 
1.82631 -0.47282 0.55001 
1.73363 -0.32394 0.78971 
1.54208 -0.93422 0.72210 
1.45031 -0.78573 0.96083 
1.73883 -0.77882 -1.03527 
1.56084 -0.48897 -1.50492 
1.83311 -0.47581 -1.05884 
1.74216 -0.32764 -1.29907 
1.54895 -0.93694 -1.23590 
1.45788 -0.78866 -1.47601 
0.00135 -2.03877 -0.55170 
-0.00122 -2.03729 0.02746 
0.28578 -2.03336 -0.40928 
0.28442 -2.03272 -0.11319 
-0.28426 -2.03306 -0.41101 
-0.28550 -2.03222 -0.11475 
0.48957 -1.25731 -1.81204 
0.78051 -0.78770 -1.98993 
0.78908 -1.22791 -1.70828 
0.93785 -0.98774 -1.79924 
0.32900 -1.05191 -1.99416 
0.47777 -0.81180 -2.08513 
-0.47679 -1.25727 -1.81563 
-0.76635 -0.78756 -1.99579 
-0.31488 -1.05188 -1.99658 
-0.77702 -1.22785 -1.71411 
-0.46295 -0.81172 -2.08869 
-0.92508 -0.98762 -1.80626 
-0.77865 -1.74026 -1.03656 
-1.24967 -1.56032 -0.74830 
-0.80398 -1.83431 -0.73406 
-0.97823 -1.54967 -1.19493 
-1.04479 -1.74219 -0.58660 
-1.21912 -1.45774 -1.04759 
0.48043 -1.25612 1.28494 
0.77586 -0.79139 1.46790 
0.77995 -1.22594 1.18432 
0.93041 -0.98760 1.27631 
0.32273 -1.05521 1.46775 
0.47048 -0.81267 1.56870 
-0.48694 -1.24997 1.28962 
-0.77282 -0.78394 1.47718 
-0.32784 -1.04860 1.47525 
-0.78314 -1.21905 1.18819 
-0.46940 -0.80328 1.58237 
-0.92984 -0.98127 1.28056 
-0.78378 -1.73536 0.50743 
-1.25210 -1.55755 0.21667 
-0.80719 -1.83138 0.20514 
-1.04672 -1.74023 0.05640 
-0.98319 -1.54377 0.66497 
-1.22272 -1.45321 0.51603 
0.25751 -0.44535 1.93794 
0.04407 -0.47965 2.18484 
0.44071 0.17803 2.13383 
0.30231 -0.38675 2.77892 
-0.22964 -0.43584 1.97392 
-0.36046 -0.34021 2.26104 
-1.55265 0.47734 0.98151 
-1.73201 0.76824 0.51186 
-1.44954 0.77603 0.95257 
-1.54113 0.92494 0.71232 
-1.73483 0.31738 0.77539 
-1.82664 0.46591 0.53543 
[...]
CELL_DATA 2104
SCALARS Strain double 
LOOKUP_TABLE default 
-0.08536
-0.09136
-0.08526
-0.08864
-0.08894
-0.08789
-0.08714
-0.08794
-0.08737
-0.08752
-0.08793
-0.08832
-0.08903
-0.08688
-0.08671
-0.08706
-0.08675
-0.08875
-0.08846
-0.08921
-0.08711
-0.08851
-0.08773
-0.08783
-0.08697
-0.08703
-0.08917
-0.09040
-0.08716
-0.08926
-0.09178
-0.08768
-0.07830
-0.09431
-0.08338
-0.09590
-0.09711
-0.06745
-0.07633
-0.07768
-0.08768
-0.08741
-0.08772
-0.08755
-0.08743
-0.08735
-0.08736
-0.08765
-0.08760
-0.08770
-0.08751
-0.08794
-0.08829
-0.08797
-0.08744
-0.08747
-0.08793
-0.08804
-0.08827
-0.08739
-0.03352
-0.03394
0.06963
0.06793
0.06808
0.06980
-0.03806
-0.03678
0.06888
0.07453
0.07274
0.06730
-0.02219
-0.04359
0.08784
0.03935
0.06663
0.10131
-0.02829
-0.04553
0.05193
0.08154
0.09675
0.07179
-0.03473
-0.03438
0.06783
0.07054
0.06961
0.06756
-0.03385
-0.03406
0.06865
0.07001
0.06966
0.06883
-0.03440
-0.03435
0.06951
0.06989
0.06984
0.06954
-0.03379
-0.03379
0.06974
0.06908
0.06920
0.06964
-0.03418
-0.03425
0.07008
0.06879
0.06880
0.07011
-0.03499
-0.03454
0.07076
0.06813
0.06752
0.07025
-0.03341
-0.03431
0.06352
0.07274
0.07278
0.06441
-0.03377
-0.03388
0.06920
0.06931
0.06905
0.06934
-0.03335
-0.03344
0.06736
0.06972
0.06988
0.06787
-0.03465
-0.03405
0.06551
0.07050
0.06980
0.06468
-0.03520
-0.03500
0.06433
0.07040
0.07192
0.06333
-0.03510
-0.03485
0.06985
0.06967
0.06969
0.06989
-0.03605
-0.03620
0.07042
0.06906
0.06910
0.07041
-0.03422
-0.03419
0.06893
0.06998
0.06999
0.06913
-0.03408
-0.03400
0.06988
0.06900
0.06916
0.06980
-0.03340
-0.03350
0.06942
0.06846
0.06835
0.06962
-0.02986
-0.03904
0.06654
0.07230
0.06140
0.07587
-0.02789
-0.04817
0.04766
0.08394
0.09003
0.07218
-0.03662
-0.03561
0.07001
0.06954
0.07102
0.06873
-0.11320
0.03492
-0.04432
-0.11021
0.06306
-0.03304
-0.03388
0.06929
0.06725
0.06705
0.06950
-0.03369
-0.03385
0.07103
0.06679
0.06695
0.07016
-0.03395
-0.03400
0.06952
0.06939
0.06937
0.06947
-0.03444
-0.03452
0.06922
0.07028
0.07033
0.06901
-0.03472
-0.03484
0.06954
0.07016
0.07027
0.06939
-0.03363
-0.03363
0.06898
0.06862
0.06854
0.06897
-0.06385
-0.04381
0.07961
0.07683
0.03128
0.03384
-0.07000
-0.04934
0.07986
0.08332
0.03691
0.03441
-0.06266
-0.04142
0.08316
0.07388
0.02724
0.03485
-0.06752
-0.04766
0.07652
0.08358
0.03834
0.03332
-0.06651
-0.04551
0.07683
0.08230
0.03531
0.03134
-0.06590
-0.04507
0.07926
0.08033
0.03455
0.03360
-0.06515
-0.04455
0.07929
0.07969
0.03409
0.03367
-0.06598
-0.04528
0.07975
0.08029
0.03462
0.03420
-0.06534
-0.04464
0.08021
0.07923
0.03370
0.03441
-0.06558
-0.04496
0.08036
0.07917
0.03356
0.03464
-0.06645
-0.04656
0.08188
0.07721
0.03282
0.03708
-0.06613
-0.04517
0.08104
0.07888
0.03308
0.03477
-0.06714
-0.04624
0.08124
0.07915
0.03335
0.03513
-0.06462
-0.04390
0.07629
0.08130
0.03490
0.03067
-0.06489
-0.04443
0.07899
0.07924
0.03375
0.03347
-0.06526
-0.04494
0.07732
0.08014
0.03452
0.03234
-0.06470
-0.04409
0.07737
0.07978
0.03401
0.03225
-0.06692
-0.04602
0.07694
0.08167
0.03537
0.03095
-0.06667
-0.04606
0.07670
0.08164
0.03507
0.03082
-0.06711
-0.04620
0.08019
0.07991
0.03437
0.03469
-0.06507
-0.04434
0.08024
0.07860
0.03254
0.03430
-0.06696
-0.04663
0.08049
0.07989
0.03435
0.03497
-0.06575
-0.04508
0.07901
0.08049
0.03477
0.03369
-0.06577
-0.04501
0.08048
0.07913
0.03371
0.03472
-0.06490
-0.04420
0.07981
0.07885
0.03294
0.03412
-0.06455
-0.04400
0.07800
0.07605
0.03049
0.03228
-0.06758
-0.04706
0.07823
0.08044
0.03495
0.03283
-0.06971
-0.04958
0.07662
0.08157
0.03744
0.03198
-0.06411
-0.04238
0.07746
0.07888
0.03146
0.02883
-0.06797
-0.04765
0.08049
0.07899
0.03311
0.03502
-0.06464
-0.05154
0.08483
0.07710
0.03719
0.04111
-0.06831
-0.04654
0.08437
0.07518
0.02867
0.03912
-0.06380
-0.04509
0.07971
0.06928
0.02642
0.03796
-0.05288
-0.03786
0.07114
0.06266
0.02402
0.03459
-0.05269
0.21561
0.12011
0.10664
0.02582
0.02579
-0.06043
-0.04871
0.07758
0.08521
0.04815
0.03868
-0.06032
-0.04835
0.07120
0.08647
0.03844
0.03417
-0.01761
0.13891
0.12392
0.02557
0.02543
-0.06181
-0.04268
0.08057
0.07595
0.03132
0.03489
-0.06467
-0.04457
0.08353
0.07659
0.03138
0.03691
-0.06575
-0.04513
0.07992
0.07987
0.03421
0.03435
-0.06543
-0.04476
0.07974
0.07974
0.03400
0.03386
-0.06592
-0.04546
0.07982
0.08007
0.03438
0.03421
-0.06560
-0.04498
0.08010
0.07954
0.03376
0.03442
-0.06542
-0.04475
0.07984
0.07961
0.03396
0.03411
-0.06532
-0.04463
0.07972
0.07971
0.03415
0.03392
-0.06539
-0.04477
0.07966
0.07982
0.03421
0.03382
-0.06562
-0.04489
0.07980
0.07980
0.03422
0.03415
-0.06573
-0.04517
0.07959
0.08037
0.03469
0.03381
-0.06590
-0.04540
0.07975
0.08035
0.03463
0.03404
-0.06561
-0.04506
0.07919
0.07896
0.03333
0.03386
-0.06593
-0.04517
0.07906
0.08034
0.03455
0.03347
-0.06626
-0.04528
0.07892
0.07972
0.03393
0.03329
-0.06606
-0.04540
0.08045
0.07908
0.03376
0.03490
-0.06534
-0.04454
0.07956
0.07887
0.03316
0.03370
-0.06531
-0.04447
0.07884
0.07996
0.03395
0.03316
-0.06619
-0.04586
0.07920
0.07948
0.03423
0.03420
-0.06594
-0.04499
0.07913
0.07936
0.03378
0.03333
-0.06641
-0.04574
0.08026
0.07958
0.03423
0.03483
-0.06532
-0.04454
0.07914
0.07934
0.03356
0.03330
0.07199
0.07182
0.01781
0.02240
0.01850
0.01492
0.07031
0.07025
0.02038
0.02090
0.01726
0.01738
0.07076
0.07095
0.02074
0.02066
0.01791
0.01741
0.07247
0.07255
0.01986
0.01996
0.01696
0.01663
0.07963
0.08356
0.02055
0.01190
0.01352
0.01240
0.07402
0.07313
0.01990
0.01900
0.01533
0.01718
0.06774
0.06626
0.02450
0.02035
0.01586
0.02247
0.07903
0.08756
0.01592
0.02554
0.02694
0.00222
0.07370
0.07488
0.02605
0.01303
0.00953
0.02325
0.13324
0.02257
0.04859
0.02556
0.12455
0.02530
0.07767
0.07469
0.01728
0.01876
0.01363
0.01651
0.13466
0.19995
0.08113
0.02521
0.07772
0.02515
0.07259
0.07191
0.02372
0.01744
0.01386
0.01938
0.07164
0.07140
0.01969
0.02077
0.01748
0.01658
0.06994
0.06986
0.02074
0.02007
0.01676
0.01838
0.07203
0.07200
0.02004
0.02086
0.01756
0.01693
0.07147
0.07158
0.02078
0.02032
0.01737
0.01744
0.07239
0.07234
0.02057
0.02010
0.01700
0.01741
0.07223
0.07205
0.02052
0.02025
0.01700
0.01737
0.07206
0.07206
0.02069
0.02026
0.01705
0.01750
0.07147
0.07137
0.02062
0.02096
0.01780
0.01735
0.07180
0.07186
0.02055
0.02057
0.01741
0.01745
0.07203
0.07189
0.02012
0.02101
0.01782
0.01683
0.07268
0.07274
0.01984
0.02027
0.01724
0.01674
0.07396
0.07470
0.01910
0.01762
0.01535
0.01492
0.07102
0.07130
0.02110
0.01998
0.01703
0.01769
0.06912
0.06801
0.02121
0.02046
0.01632
0.01863
0.07248
0.07237
0.01911
0.02059
0.01724
0.01627
0.06889
0.07099
0.02380
0.01478
0.01346
0.01946
0.07197
0.07209
0.01996
0.02070
0.01757
0.01654
0.06931
0.06870
0.02051
0.02126
0.01780
0.01764
0.07218
0.07219
0.01900
0.02106
0.01789
0.01618
0.07263
0.07284
0.01844
0.02071
0.01762
0.01483
0.07080
0.07116
0.02053
0.02107
0.01789
0.01734
0.07405
0.07474
0.01653
0.01724
0.01479
0.01225
0.07174
0.07157
0.01719
0.02134
0.01800
0.01441
0.06638
0.06634
0.02047
0.01974
0.01622
0.01760
0.06608
0.06848
0.02491
0.01226
0.01081
0.02015
0.07244
0.07247
0.02053
0.01989
0.01647
0.01734
0.07166
0.07176
0.02132
0.01906
0.01578
0.01811
0.07287
0.07279
0.01920
0.01916
0.01581
0.01612
0.07249
0.07245
0.02018
0.02015
0.01706
0.01712
0.07176
0.07183
0.02073
0.02037
0.01713
0.01753
0.07133
0.07114
0.02098
0.02055
0.01750
0.01774
0.07179
0.07190
0.02060
0.02043
0.01720
0.01749
0.07223
0.07215
0.01998
0.02088
0.01761
0.01664
0.07093
0.07127
0.01994
0.02090
0.01800
0.01637
0.07234
0.07252
0.01955
0.02072
0.01765
0.01650
0.08942
0.07826
0.01859
0.01363
0.00347
0.01488
0.10378
-0.23341
0.07415
0.02577
0.05833
0.02568
0.08044
0.07616
0.01392
0.02106
0.01266
0.01542
0.09393
0.18360
0.06348
0.02495
0.07081
0.02497
0.07598
0.07514
0.02381
0.01518
0.01096
0.02065
0.06994
0.06924
0.02143
0.02014
0.01672
0.01947
0.06987
0.06984
0.02023
0.02148
0.01734
0.01685
0.07182
0.07162
0.01974
0.01959
0.01674
0.01666
0.07193
0.07142
0.01972
0.01989
0.01677
0.01665
0.07285
0.07283
0.01997
0.02027
0.01698
0.01663
0.07131
0.07113
0.02129
0.01999
0.01688
0.01816
0.07173
0.07157
0.02126
0.01959
0.01649
0.01815
0.07113
0.06783
-0.00933
-0.00647
0.07332
-0.00329
-0.00447
0.06653
-0.01131
-0.00550
0.07458
-0.00169
-0.00762
-0.00378
-0.00843
0.07070
0.07154
-0.00529
-0.00596
0.07095
-0.00597
-0.00616
0.07146
-0.00526
-0.00565
0.07049
-0.00620
-0.00553
-0.00623
-0.00537
0.07245
0.06882
-0.00692
-0.00397
0.07001
-0.00667
-0.00491
0.07203
0.07066
-0.00576
-0.00479
-0.00568
-0.00819
-0.00627
-0.00684
0.06873
0.07127
-0.00597
-0.00759
0.06888
0.07091
-0.00636
-0.00762
0.07256
-0.00456
-0.00777
-0.00494
-0.00799
-0.00546
-0.00509
0.07147
0.07015
-0.00705
-0.00572
0.07114
-0.00538
-0.00503
0.07177
-0.00513
-0.00619
0.07028
-0.00613
-0.00509
-0.00688
-0.00587
0.06881
0.06944
-0.00835
-0.00881
0.07154
-0.00505
-0.00747
0.07044
-0.00439
-0.00559
0.06902
-0.00906
-0.00877
-0.00731
-0.00485
0.07070
0.07818
-0.00874
-0.01386
0.06558
-0.00802
-0.00096
0.05449
-0.01459
-0.00046
0.08948
-0.01124
-0.03206
-0.01518
-0.01491
0.09079
0.06780
-0.01164
-0.00532
0.09420
0.06806
-0.01810
-0.00880
-0.02642
-0.02707
0.06294
-0.00562
-0.00507
-0.00459
-0.00338
0.07105
0.07113
-0.00563
-0.00561
0.07099
-0.00588
-0.00596
0.07127
-0.00555
-0.00573
0.07085
-0.00603
-0.00555
-0.00592
-0.00576
0.07110
0.07088
-0.00583
-0.00586
0.07105
0.07097
-0.00579
-0.00597
-0.00562
-0.00565
0.07143
-0.00537
-0.00600
-0.00540
-0.00583
0.07033
0.07064
-0.00626
-0.00635
0.07144
-0.00549
-0.00634
0.07093
-0.00585
-0.00602
0.07024
-0.00617
-0.00523
-0.00665
-0.00615
0.07026
0.07118
-0.00602
-0.00665
0.07103
-0.00560
-0.00612
0.07045
-0.00630
-0.00591
0.07073
-0.00565
-0.00528
-0.00626
-0.00654
0.05421
0.05634
0.07715
0.07495
0.05660
0.05531
0.07633
0.07769
-0.01398
-0.01482
0.04776
-0.01453
-0.01549
0.04987
-0.01581
0.04978
-0.01623
0.04855
0.05936
0.05562
0.07703
0.08150
0.05511
0.06042
0.07998
0.07458
-0.01741
-0.01929
0.05167
-0.01790
-0.02155
0.04619
-0.01801
0.04927
-0.01775
0.05558
0.04097
0.05016
0.08034
0.07173
0.06853
0.05877
0.08181
0.08756
-0.02133
-0.01292
0.04572
0.02369
-0.00876
0.01533
-0.02448
0.06029
-0.03264
-0.00880
0.05105
0.04857
0.07926
0.07789
0.07135
0.06233
0.08213
0.08141
0.00587
-0.02023
0.02639
-0.02017
-0.01567
0.04913
-0.04522
0.01274
-0.02000
0.05378
0.05673
0.05425
0.07484
0.07847
0.05504
0.05652
0.07690
0.07587
-0.01475
-0.01623
0.04956
-0.01519
-0.01739
0.04691
-0.01596
0.04847
-0.01638
0.05077
0.05648
0.05574
0.07656
0.07722
0.05529
0.05668
0.07811
0.07643
-0.01451
-0.01573
0.05023
-0.01619
0.04831
-0.01442
-0.01565
0.04917
-0.01604
0.04978
0.05672
0.05634
0.07722
0.07770
0.05633
0.05660
0.07747
0.07728
-0.01489
-0.01634
0.04996
-0.01487
-0.01632
0.04970
-0.01623
0.04965
-0.01622
0.04994
0.05591
0.05653
0.07758
0.07672
0.05642
0.05597
0.07703
0.07726
-0.01439
-0.01580
0.04934
-0.01418
-0.01560
0.04975
-0.01579
0.04984
-0.01557
0.04919
0.05563
0.05687
0.07782
0.07655
0.05682
0.05559
0.07649
0.07783
-0.01494
-0.01628
0.04905
-0.01641
0.05007
-0.01461
-0.01593
0.05023
-0.01611
0.04899
0.05482
0.05721
0.07871
0.07621
0.05717
0.05466
0.07490
0.07777
-0.01565
-0.01768
0.04735
-0.01496
-0.01666
0.05019
-0.01638
0.05109
-0.01605
0.04844
0.05813
0.05186
0.07240
0.07951
0.04985
0.06061
0.08179
0.07207
-0.01170
-0.01317
0.05070
-0.01387
0.04253
-0.01653
-0.01677
0.04638
-0.01972
0.05284
0.05602
0.05594
0.07672
0.07669
0.05611
0.05594
0.07711
0.07715
-0.01442
-0.01569
0.04960
-0.01587
0.04935
-0.01430
-0.01554
0.04944
-0.01577
0.04903
0.05650
0.05450
0.07488
0.07736
0.05442
0.05653
0.07768
0.07579
-0.01399
-0.01524
0.05005
-0.01392
-0.01528
0.04828
-0.01549
0.04725
-0.01535
0.04978
0.05720
0.05203
0.07370
0.07895
0.05206
0.05639
0.07641
0.07201
-0.01437
-0.01620
0.05005
-0.01550
-0.01774
0.04427
-0.01525
0.04612
-0.01620
0.05047
0.05725
0.05170
0.07318
0.07932
0.04982
0.05927
0.07791
0.06907
-0.01392
-0.01581
0.04924
-0.01454
0.04477
-0.01812
-0.01884
0.04515
-0.02029
0.05296
0.05650
0.05675
0.07762
0.07743
0.05659
0.05643
0.07733
0.07755
-0.01547
-0.01714
0.04974
-0.01662
0.04993
-0.01551
-0.01719
0.05013
-0.01665
0.04977
0.05624
0.05720
0.07808
0.07714
0.05720
0.05547
0.07628
0.07804
-0.01695
-0.01803
0.04960
-0.01857
0.05051
-0.01637
-0.01764
0.05052
-0.01777
0.04887
0.05686
0.05587
0.07656
0.07783
0.05582
0.05667
0.07762
0.07691
-0.01463
-0.01604
0.05018
-0.01600
0.04893
-0.01476
-0.01621
0.04936
-0.01610
0.05000
0.05589
0.05675
0.07777
0.07665
0.05651
0.05589
0.07698
0.07738
-0.01464
-0.01612
0.04935
-0.01443
-0.01593
0.05001
-0.01596
0.04991
-0.01574
0.04906
0.05509
0.05636
0.07720
0.07620
0.05617
0.05527
0.07616
0.07739
-0.01387
-0.01520
0.04834
-0.01406
-0.01539
0.04984
-0.01542
0.04922
-0.01556
0.04873
0.05382
0.04280
0.06872
0.08479
0.04511
0.07004
0.07438
0.05933
-0.01561
-0.01518
0.04920
-0.01178
0.04107
0.00068
-0.02238
0.02179
-0.03575
0.02780
0.05160
0.04449
0.07262
0.07855
0.06814
0.06162
0.06756
0.08436
0.00534
-0.01269
0.02177
-0.02299
-0.01402
0.04884
-0.03840
0.01441
-0.02371
0.05653
0.05592
0.05665
0.07797
0.07773
0.05638
0.05706
0.07695
0.07656
-0.01619
-0.01784
0.04870
-0.01700
0.05028
-0.01650
-0.01993
0.04736
-0.01703
0.05204
-0.26366
-0.10218
0.06270
0.07055
0.08923
-0.15915
-0.11298
0.21868
0.00885
0.27562
-0.02766
-0.05733
0.05351
0.05650
0.07726
0.07389
0.05604
0.05470
0.07568
0.07717
-0.01355
-0.01413
0.04691
-0.01570
0.04923
-0.01470
-0.01547
0.04942
-0.01655
0.04821
0.05288
0.05800
0.08041
0.07407
0.05659
0.05463
0.07558
0.07718
-0.01341
-0.01488
0.04532
-0.01532
0.05048
-0.01492
-0.01643
0.05007
-0.01636
0.04816
0.05614
0.05626
0.07725
0.07706
0.05634
0.05623
0.07717
0.07722
-0.01446
-0.01582
0.04945
-0.01591
0.04970
-0.01444
-0.01580
0.04953
-0.01589
0.04952
0.05699
0.05589
0.07698
0.07795
0.05597
0.05715
0.07801
0.07664
-0.01504
-0.01634
0.05030
-0.01651
0.04949
-0.01497
-0.01626
0.04904
-0.01643
0.05052
0.05690
0.05620
0.07722
0.07791
0.05637
0.05708
0.07786
0.07708
-0.01529
-0.01654
0.05013
-0.01680
0.04983
-0.01530
-0.01655
0.04941
-0.01680
0.05049
0.05533
0.05580
0.07684
0.07626
0.05570
0.05539
0.07647
0.07670
-0.01459
-0.01603
0.04886
-0.01603
0.04909
-0.01385
-0.01527
0.04916
-0.01528
0.04874
-0.01537
-0.02073
-0.01609
-0.01766
0.08544
0.08316
-0.02285
-0.01583
0.09049
-0.01232
-0.01876
0.08354
-0.02005
-0.01806
0.08735
-0.01729
-0.01682
-0.01760
-0.01744
0.08477
0.08614
-0.01675
-0.01759
0.08552
-0.01758
-0.01703
0.08600
-0.01682
-0.01706
0.08495
-0.01854
-0.01780
-0.01789
-0.01484
0.08725
0.08143
-0.01749
-0.01668
0.08491
-0.01940
-0.01737
-0.01813
-0.01651
0.08761
0.08480
-0.01696
-0.01731
-0.01701
-0.01865
0.08236
0.08597
-0.01624
-0.01773
-0.01647
-0.01871
0.08263
0.08572
-0.01938
-0.01954
0.08788
-0.01676
-0.01887
-0.01658
-0.01723
0.08626
0.08454
-0.01862
-0.01641
0.08548
-0.01747
-0.01744
0.08616
-0.01724
-0.01655
0.08477
-0.01629
-0.01988
-0.01563
-0.02040
0.08455
0.07907
-0.01887
-0.01901
0.08633
-0.02226
-0.01541
0.08776
-0.01570
-0.02112
0.08707
-0.02272
-0.01709
-0.00756
-0.05296
0.09032
0.07206
-0.02329
-0.01449
0.08343
-0.02206
-0.01092
0.07808
0.01476
-0.06307
0.02573
0.00806
-0.05130
-0.02000
-0.01474
0.04885
0.08679
0.01145
-0.06131
-0.02098
-0.01752
0.02017
0.09168
-0.01606
-0.01784
0.08297
-0.01737
-0.01708
-0.01738
-0.01701
0.08566
0.08561
-0.01700
-0.01760
0.08559
-0.01764
-0.01718
0.08593
-0.01725
-0.01698
0.08534
-0.01701
-0.01718
-0.01678
-0.01743
0.08546
0.08546
-0.01711
-0.01716
-0.01688
-0.01758
0.08545
0.08564
-0.01736
-0.01759
0.08628
-0.01704
-0.01767
-0.01743
-0.01747
0.08495
0.08411
-0.01744
-0.01776
0.08626
-0.01801
-0.01734
0.08538
-0.01766
-0.01657
0.08474
-0.01683
-0.01778
-0.01690
-0.01808
0.08472
0.08598
-0.01789
-0.01711
0.08422
-0.01766
-0.01732
0.08513
-0.01805
-0.01658
0.08521
0.04834
0.04675
0.04959
0.04722
0.04874
0.04798
0.05659
0.04231
0.04800
0.12248
-0.07163
-0.03440
0.05081
0.04800
0.04558
0.04842
0.04800
0.04854
0.04865
0.04845
0.04815
0.04782
0.04837
0.04901
0.05062
0.04494
0.04656
0.04750
0.04875
0.04835
0.04546
0.04907
0.04846
0.04850
0.04738
0.04890
0.05071
0.04156
0.04516
0.04774
0.04920
0.04715
0.04871
0.04820
0.04819
0.04763
0.04867
0.04874
0.10522
-0.02241
-0.04444
0.05311
0.04935
0.04434
0.04702
0.04795
0.04804
0.04927
0.04761
0.04801
-0.00403
0.01982
-0.00190
0.09388
0.09462
-0.12735
0.04826
-0.11889
-0.01203
-0.06783
-0.02527
-0.07524
-0.04888
0.04038
-0.00571
-0.00682
-0.02702
-0.20715
0.08952
0.16672
-0.14390
0.13984
-0.01536
-0.08229
0.03619
-0.12599
-0.10486
-0.04954
0.16111
0.10785
-0.21993
0.09189
0.14213
0.17697
0.15641
-0.22569
-0.00597
0.09162
0.07741
0.19316
-0.01314
0.14675
0.02053
0.17324
-0.03754
0.00459
0.01984
0.20422
-0.12507
0.13710
-0.06335
-0.01327
-0.13265
0.28834
-0.04234
0.12347
-0.16056
0.00106
0.08950
0.15689
0.02240
0.03524
-0.09114
0.00012
-0.18697
-0.11850
0.07004
-0.07493
-0.03385
-0.14351
-0.04249
0.05123
0.13131
0.06464
0.02521
-0.17594
-0.07815
-0.10567
0.20489
0.06055
0.00722
0.06169
-0.08941
0.05472
0.12709
-0.15214
-0.17966
0.15433
-0.02381
0.16435
-0.09557
-0.04871
0.10510
-0.05071
0.08394
0.03999
0.04372
0.03495
0.00681
0.22750
-0.12703
0.02346
-0.04411
-0.03742
-0.10382
-0.05585
0.01212
0.09796
0.06004
0.00849
-0.11668
-0.00716
0.23680
0.17454
-0.19433
0.05051
0.01645
-0.00005
0.25666
0.11921
-0.03584
-0.13315
-0.03842
0.02077
0.15056
0.20354
0.15037
-0.00354
0.06927
0.13268
-0.05476
0.00762
0.12666
0.21639
-0.00584
-0.07649
-0.05113
0.13237
-0.11970
0.25320
0.18820
-0.04758
0.02799
-0.10734
-0.03823
0.04025
-0.02391
0.03640
-0.07690
0.09427
-0.11862
0.00665
-0.07711
-0.05267
-0.05525
0.09155
0.02881
-0.19091
-0.13683
-0.03044
-0.14625
-0.06405
-0.19050
0.16561
0.02648
-0.15544
-0.00401
0.27004
0.12883
0.01044
0.30428
-0.06281
-0.14130
0.01714
-0.12483
-0.13684
-0.01581
-0.17484
0.11650
-0.08919
-0.17905
-0.06647
-0.18399
-0.20989
0.15030
-0.15397
0.03660
-0.26446
0.02313
-0.25817
0.01131
0.10000
