# vtk DataFile Version 3.0
Point representing Sub_cellular elem model
ASCII

DATASET UNSTRUCTURED_GRID
POINTS 753 float
0.00965 1.71243 0.59080 
0.00679 1.72901 -1.56658 
1.74973 1.06471 -0.49441 
1.75164 -1.08903 -0.49649 
0.00721 -1.75359 -1.56898 
0.01544 -1.74979 0.58260 
1.09721 -0.01210 1.25614 
-1.04795 -0.02164 1.27545 
1.08394 -0.01141 -2.23403 
-1.06926 -0.01196 -2.23309 
-1.72728 1.05842 -0.48559 
-1.72942 -1.08740 -0.48907 
0.00724 2.03362 -0.48766 
1.03211 1.64235 0.14334 
0.64445 1.00445 1.18273 
-0.61163 0.99332 1.19908 
-1.01080 1.63388 0.15090 
1.03327 1.64862 -1.12592 
0.64156 1.01519 -2.15244 
-0.62738 1.01453 -2.15172 
-1.01800 1.64523 -1.12222 
2.06312 -0.01165 -0.49705 
1.67038 0.62161 0.52932 
1.66906 0.62339 -1.52030 
1.03442 -1.67311 -1.12858 
1.03752 -1.67160 0.13902 
1.67385 -0.64639 0.52746 
1.66920 -0.64640 -1.52107 
0.00918 -2.06365 -0.49290 
0.64160 -1.03817 -2.15332 
-0.62728 -1.03828 -2.15267 
-1.01837 -1.67232 -1.12577 
0.65193 -1.03474 1.17736 
-0.60959 -1.03921 1.17630 
-1.01196 -1.66977 0.14331 
0.09063 0.63429 2.08631 
-1.63438 0.61256 0.54417 
-1.63737 -0.64606 0.53918 
0.00728 -0.01151 -2.54426 
-1.65270 0.62136 -1.51599 
-1.65297 -0.64659 -1.51707 
-2.03831 -0.01368 -0.48724 
0.00816 1.94671 0.08467 
0.53017 1.74735 0.40643 
0.33275 1.42071 0.93441 
-0.30935 1.41633 0.93901 
-0.51078 1.74191 0.41078 
0.00684 1.95683 -1.06044 
0.53028 1.75931 -1.38565 
0.33050 1.43661 -1.90970 
-0.31670 1.43607 -1.90914 
-0.51641 1.75779 -1.38417 
1.45484 1.40466 -0.16953 
1.45543 1.40667 -0.81645 
1.98109 0.56022 -0.49601 
1.78009 0.88259 0.02795 
1.78018 0.88408 -1.01790 
1.98210 -0.58379 -0.49713 
1.45706 -1.43112 -0.81895 
1.45844 -1.43079 -0.17264 
1.78304 -0.90734 0.02589 
1.78087 -0.90749 -1.01933 
0.53100 -1.78380 -1.38826 
0.00777 -1.98338 -1.06416 
0.33071 -1.46007 -1.91120 
-0.31650 -1.46002 -1.91076 
-0.51615 -1.78349 -1.38714 
0.53659 -1.78084 0.40024 
0.01178 -1.98099 0.07808 
0.34180 -1.45689 0.92559 
-0.30353 -1.45719 0.92647 
-0.50837 -1.78006 0.40233 
0.91619 0.51170 1.28846 
1.43292 0.31102 0.95140 
1.43596 -0.33543 0.94970 
0.92334 -0.53956 1.28368 
0.59739 -0.01186 1.52972 
-0.87064 0.49884 1.31440 
-0.87061 -0.54357 1.29577 
-0.54633 -0.02934 1.54738 
-1.38941 0.30202 0.97051 
-1.39089 -0.33893 0.96509 
0.90239 0.51228 -2.26370 
1.42640 0.31233 -1.94124 
1.42641 -0.33520 -1.94154 
0.90238 -0.53512 -2.26411 
0.57874 -0.01142 -2.46338 
-0.88792 0.51167 -2.26294 
-0.88787 -0.53545 -2.26338 
-0.56421 -0.01170 -2.46317 
-1.41132 0.31131 -1.93905 
-1.41134 -0.33573 -1.93942 
-1.43209 1.39647 -0.16063 
-1.43721 1.40151 -0.81004 
-1.75153 0.87453 0.03941 
-1.76128 0.88023 -1.01104 
-1.95681 0.55547 -0.48623 
-1.43858 -1.42979 -0.81386 
-1.43467 -1.42853 -0.16616 
-1.75456 -0.90566 0.03531 
-1.76229 -0.90689 -1.01325 
-1.95825 -0.58336 -0.48817 
0.56268 1.93188 -0.18347 
-0.54630 1.92765 -0.18013 
0.56289 1.93635 -0.79529 
-0.54829 1.93362 -0.79290 
0.90660 1.37338 0.71645 
1.05714 1.74780 -0.49112 
1.40149 1.19037 0.40665 
0.01375 1.02639 1.29703 
1.21530 0.88482 0.90201 
0.32501 0.53180 1.52496 
-0.88011 1.36317 0.72709 
-0.27929 0.51860 1.55014 
-1.17880 0.87271 0.91966 
-1.03964 1.74196 -0.48561 
-1.37242 1.17961 0.41883 
0.90757 1.38358 -1.69782 
1.40249 1.19496 -1.39334 
0.00705 1.03943 -2.25370 
1.21356 0.88938 -1.88740 
0.31281 0.54511 -2.44276 
-0.89328 1.38191 -1.69582 
-0.29839 0.54492 -2.44262 
-1.19883 0.88799 -1.88529 
-1.38666 1.19211 -1.38919 
1.96172 0.29393 0.05873 
1.96058 0.29437 -1.05195 
1.96279 -0.31758 0.05804 
1.96078 -0.31748 -1.05243 
1.77499 -0.01179 0.55144 
1.77104 -0.01147 -1.54540 
1.06005 -1.77449 -0.49482 
1.40297 -1.21835 -1.39495 
0.56477 -1.96313 -0.79922 
0.90788 -1.40695 -1.69943 
1.40698 -1.21756 0.40333 
0.56650 -1.96207 -0.18855 
0.91427 -1.40411 0.71161 
1.22164 -0.91255 0.89838 
1.21363 -0.91234 -1.88829 
-0.54791 -1.96244 -0.79758 
-0.54540 -1.96108 -0.18655 
0.00714 -1.06264 -2.25455 
0.31281 -0.56804 -2.44315 
-0.89325 -1.40677 -1.69779 
-0.29835 -0.56816 -2.44301 
-1.19885 -0.91248 -1.88639 
-1.04057 -1.77291 -0.49103 
-1.38710 -1.21793 -1.39143 
0.02604 -1.06517 1.28097 
0.33344 -0.55044 1.51767 
-0.88058 -1.40381 0.71501 
-0.27457 -0.57619 1.50487 
-1.18152 -0.91225 0.90724 
-1.37580 -1.21543 0.41105 
-1.73641 -0.01603 0.56595 
-1.93036 0.28900 0.07109 
-1.93167 -0.31856 0.06961 
-1.75447 -0.01253 -1.54113 
-1.94095 0.29205 -1.04488 
-1.94135 -0.31811 -1.04563 
0.00881 1.84567 0.34876 
0.26897 1.74638 0.50933 
0.17070 1.58318 0.77217 
-0.14964 1.58123 0.77389 
-0.24996 1.74352 0.51155 
0.00679 1.85968 -1.32474 
0.26775 1.76099 -1.48677 
0.16812 1.60025 -1.74811 
-0.15448 1.59991 -1.74779 
-0.25412 1.76028 -1.48611 
1.61963 1.24485 -0.33254 
1.61985 1.24563 -0.65495 
1.88196 0.82377 -0.49523 
1.78171 0.98433 -0.23393 
1.78185 0.98523 -0.75542 
1.88343 -0.84767 -0.49687 
1.62166 -1.27002 -0.65727 
1.62233 -1.26992 -0.33510 
1.78414 -1.00892 -0.23603 
1.78306 -1.00902 -0.75720 
0.26830 -1.78551 -1.48928 
0.00741 -1.88508 -1.32775 
0.16845 -1.62416 -1.75004 
-0.15419 -1.62411 -1.74978 
-0.25373 -1.78537 -1.48877 
0.27525 -1.78202 0.50202 
0.01353 -1.88176 0.34143 
0.17809 -1.62042 0.76346 
-0.14369 -1.62027 0.76415 
-0.24563 -1.78162 0.50317 
1.02338 0.24805 1.28674 
1.27650 0.14808 1.11824 
1.27927 -0.17174 1.11655 
1.03010 -0.27320 1.28265 
0.85977 -0.01214 1.40202 
-0.97313 0.23693 1.31182 
-0.97328 -0.28120 1.30190 
-0.80846 -0.02415 1.42144 
-1.22916 0.13953 1.13903 
-1.22975 -0.17910 1.13489 
1.00386 0.24966 -2.26568 
1.26507 0.14996 -2.10491 
1.26507 -0.17280 -2.10505 
1.00385 -0.27248 -2.26588 
0.84247 -0.01140 -2.36519 
-0.98928 0.24908 -2.26486 
-0.98925 -0.27293 -2.26508 
-0.82792 -0.01183 -2.36469 
-1.25026 0.14923 -2.10346 
-1.25025 -0.17337 -2.10362 
-1.59680 1.23757 -0.32359 
-1.59960 1.23983 -0.64721 
-1.75645 0.97710 -0.22390 
-1.76127 0.98018 -0.74743 
-1.85850 0.81801 -0.48584 
-1.60144 -1.26850 -0.65096 
-1.59932 -1.26792 -0.32802 
-1.75908 -1.00713 -0.22765 
-1.76282 -1.00790 -0.75028 
-1.86039 -0.84644 -0.48860 
0.00763 2.01032 -0.19693 
0.00698 2.01562 -0.77853 
0.29145 2.00761 -0.33982 
-0.27635 2.00560 -0.33826 
0.29137 2.01010 -0.63710 
-0.27698 2.00847 -0.63578 
0.78726 1.71258 0.28327 
1.25704 1.53869 -0.00923 
0.81133 1.80908 -0.01978 
0.98716 1.52326 0.44025 
1.05153 1.71997 -0.16923 
1.22749 1.43450 0.29030 
0.49326 1.22716 1.07197 
0.78850 0.76745 1.25314 
0.79014 1.19954 0.96558 
0.33723 1.02513 1.26357 
0.94081 0.96411 1.05563 
0.48412 0.78357 1.36730 
-0.46615 1.21956 1.08143 
-0.74842 0.75356 1.27670 
-0.30766 1.01813 1.27377 
-0.76069 1.18893 0.97866 
-0.44681 0.77125 1.38779 
-0.90548 0.95154 1.07400 
-0.76700 1.70519 0.28944 
-1.23482 1.53001 -0.00076 
-0.79291 1.80262 -0.01444 
-0.96340 1.51374 0.44914 
-1.03232 1.71278 -0.16275 
-1.20251 1.42448 0.30025 
0.78815 1.72163 -1.26420 
1.25802 1.54253 -0.97510 
0.81201 1.81486 -0.96092 
1.05218 1.72328 -0.81313 
0.98853 1.53188 -1.42275 
1.22886 1.44029 -1.27488 
0.48999 1.23968 -2.04600 
0.78046 0.77017 -2.22575 
0.78977 1.21042 -1.94349 
0.32893 1.03427 -2.22787 
0.93834 0.97035 -2.03548 
0.47744 0.79417 -2.31972 
-0.47601 1.23905 -2.04532 
-0.76612 0.76953 -2.22500 
-0.31481 1.03395 -2.22756 
-0.77562 1.20934 -1.94221 
-0.46315 0.79380 -2.31937 
-0.92399 0.96933 -2.03416 
-0.77376 1.71920 -1.26170 
-1.24147 1.53820 -0.97008 
-0.79707 1.81156 -0.95774 
-1.03597 1.71874 -0.80854 
-0.97388 1.52944 -1.41992 
-1.21331 1.43710 -1.27090 
2.04231 0.27888 -0.49664 
2.04282 -0.30225 -0.49721 
2.03754 0.13683 -0.21271 
2.03685 0.13700 -0.78104 
2.03793 -0.16027 -0.21302 
2.03701 -0.16019 -0.78130 
1.74266 0.76049 0.28503 
1.56588 0.47026 0.75354 
1.55140 0.91697 0.48604 
1.46099 0.76859 0.72595 
1.83828 0.45827 0.30773 
1.74777 0.30989 0.54697 
1.74235 0.76227 -1.27557 
1.56262 0.47183 -1.74450 
1.55142 0.92009 -1.47492 
1.45959 0.77161 -1.71478 
1.83694 0.45918 -1.30014 
1.74495 0.31064 -1.53985 
1.25941 -1.56702 -0.97771 
0.78908 -1.74612 -1.26686 
1.05409 -1.74874 -0.81635 
1.22964 -1.46411 -1.27699 
0.81356 -1.84033 -0.96420 
0.98916 -1.55569 -1.42485 
1.26157 -1.56622 -0.01292 
0.79335 -1.74385 0.27812 
1.05562 -1.74800 -0.17329 
1.23321 -1.46284 0.28645 
0.81604 -1.83895 -0.02454 
0.99385 -1.55344 0.43569 
1.74600 -0.78531 0.28306 
1.56922 -0.49492 0.75178 
1.84038 -0.48229 0.30656 
1.74956 -0.33377 0.54607 
1.55614 -0.94294 0.48337 
1.46599 -0.79466 0.72322 
1.74269 -0.78543 -1.27665 
1.56266 -0.49474 -1.74501 
1.83712 -0.48223 -1.30078 
1.74501 -0.33359 -1.54024 
1.55170 -0.94323 -1.47609 
1.45969 -0.79459 -1.71564 
0.00834 -2.04373 -0.78302 
0.01032 -2.04249 -0.20286 
0.29340 -2.03843 -0.64170 
0.29431 -2.03784 -0.34506 
-0.27590 -2.03802 -0.64083 
-0.27479 -2.03736 -0.34411 
0.49011 -1.26284 -2.04716 
0.78046 -0.79306 -2.22638 
0.78990 -1.23353 -1.94469 
0.93838 -0.99331 -2.03637 
0.32898 -1.05733 -2.22872 
0.47745 -0.81711 -2.32033 
-0.47586 -1.26285 -2.04659 
-0.76604 -0.79327 -2.22569 
-0.31470 -1.05740 -2.22844 
-0.77552 -1.23354 -1.94360 
-0.46307 -0.81725 -2.32001 
-0.92392 -0.99344 -2.03519 
-0.77376 -1.74559 -1.26497 
-1.24232 -1.56594 -0.97382 
-0.79718 -1.83951 -0.96190 
-0.97401 -1.55524 -1.42262 
-1.03663 -1.74755 -0.81301 
-1.21376 -1.46346 -1.27378 
0.50252 -1.26061 1.06446 
0.79574 -0.79754 1.24759 
0.79817 -1.23040 0.96046 
0.94810 -0.99373 1.05094 
0.34688 -1.05787 1.25455 
0.49043 -0.81133 1.36158 
-0.46138 -1.26272 1.06438 
-0.74795 -0.79917 1.25316 
-0.29932 -1.06239 1.25193 
-0.76016 -1.23191 0.96227 
-0.44287 -0.82172 1.35580 
-0.90654 -0.99431 1.05638 
-0.76656 -1.74258 0.28121 
-1.23699 -1.56400 -0.00738 
-0.79290 -1.83749 -0.02145 
-1.03344 -1.74616 -0.16916 
-0.96439 -1.55207 0.43981 
-1.20494 -1.46072 0.29228 
0.01759 -0.51172 1.77877 
-0.23353 -0.46568 2.02526 
0.48370 0.05309 1.78204 
0.36984 -0.45350 2.41583 
-0.37244 -0.29441 1.80537 
-0.53838 -0.00736 2.02246 
-1.52610 0.46113 0.77046 
-1.71046 0.75181 0.29808 
-1.42420 0.75766 0.74229 
-1.51845 0.90654 0.49997 
-1.70984 0.30301 0.56203 
[...]
CELL_DATA 2251
SCALARS Strain double 
LOOKUP_TABLE default 
-0.08268
-0.09053
-0.08752
-0.08407
-0.09293
-0.08737
-0.08779
-0.08738
-0.08768
-0.08757
-0.08727
-0.08849
-0.08751
-0.08877
-0.08790
-0.08699
-0.08773
-0.08780
-0.08887
-0.08858
-0.08751
-0.08785
-0.08756
-0.08771
-0.08753
-0.09057
-0.08725
-0.08532
-0.09040
-0.08785
-0.09647
-0.07981
-0.07206
-0.10064
-0.07478
-0.09821
-0.09899
-0.06878
-0.07618
-0.07512
-0.08729
-0.08759
-0.08778
-0.08722
-0.08771
-0.08744
-0.08757
-0.08737
-0.08745
-0.08728
-0.08856
-0.08874
-0.08507
-0.08571
-0.09069
-0.08844
-0.08806
-0.08675
-0.08672
-0.08946
-0.03164
-0.03245
0.06710
0.06827
0.06867
0.06735
-0.03511
-0.03425
0.06631
0.07255
0.07120
0.06541
-0.03362
-0.05000
0.08316
0.05694
0.07893
0.09393
-0.02530
-0.04801
0.04244
0.09649
0.11155
0.06936
-0.03939
-0.03790
0.06702
0.07902
0.07616
0.06505
-0.03470
-0.03483
0.06974
0.06949
0.06933
0.06991
-0.03377
-0.03375
0.06936
0.06961
0.06950
0.06947
-0.03410
-0.03406
0.06982
0.06973
0.06966
0.06984
-0.03445
-0.03467
0.06828
0.07131
0.07058
0.06845
-0.03296
-0.03285
0.06837
0.06778
0.06756
0.06833
-0.03665
-0.03719
0.06693
0.07127
0.07054
0.06793
-0.03460
-0.03452
0.07032
0.06900
0.06873
0.07046
-0.03412
-0.03407
0.06860
0.06976
0.06948
0.06870
-0.03552
-0.03670
0.06914
0.06870
0.06970
0.07009
-0.03640
-0.03658
0.06788
0.06968
0.06938
0.06816
-0.03506
-0.03491
0.06901
0.07051
0.07038
0.06921
-0.03452
-0.03447
0.06840
0.06977
0.06969
0.06796
-0.03380
-0.03374
0.06905
0.06950
0.06957
0.06919
-0.03426
-0.03423
0.06970
0.06971
0.06975
0.06969
-0.03442
-0.03457
0.06931
0.06965
0.06972
0.06918
-0.02589
-0.04999
0.08458
0.07779
0.04751
0.10079
-0.03517
-0.04540
0.06307
0.07894
0.08761
0.07364
-0.03467
-0.03472
0.06686
0.07033
0.07085
0.06624
0.01671
0.09689
0.20191
0.24720
0.04059
-0.02714
-0.02783
0.07315
0.05937
0.05949
0.07319
-0.02999
-0.03093
0.07037
0.06342
0.06234
0.07068
-0.03405
-0.03399
0.06974
0.06958
0.06953
0.06977
-0.03353
-0.03323
0.06970
0.06867
0.06881
0.06969
-0.03357
-0.03345
0.06951
0.06898
0.06900
0.06950
-0.03763
-0.03736
0.07132
0.07085
0.07054
0.07060
-0.06123
-0.04152
0.07592
0.07815
0.03236
0.03014
-0.06795
-0.04653
0.07588
0.08563
0.03788
0.03006
-0.06697
-0.04842
0.08775
0.07337
0.03177
0.04338
-0.06117
-0.04010
0.07014
0.08843
0.04064
0.02429
-0.07165
-0.05091
0.07848
0.08788
0.04049
0.03328
-0.06508
-0.04393
0.07970
0.07897
0.03310
0.03369
-0.06596
-0.04541
0.07998
0.07977
0.03431
0.03445
-0.06535
-0.04464
0.07968
0.07992
0.03416
0.03407
-0.06569
-0.04498
0.07999
0.08006
0.03435
0.03436
-0.06568
-0.04513
0.07921
0.08026
0.03498
0.03372
-0.06526
-0.04471
0.07958
0.07773
0.03210
0.03403
-0.06655
-0.04579
0.07945
0.08026
0.03444
0.03376
-0.06515
-0.04408
0.07961
0.07813
0.03204
0.03345
-0.06721
-0.04697
0.07824
0.08028
0.03499
0.03338
-0.06606
-0.04545
0.08045
0.07857
0.03336
0.03501
-0.06467
-0.04377
0.07853
0.07857
0.03252
0.03273
-0.06572
-0.04500
0.07853
0.08020
0.03414
0.03304
-0.06606
-0.04574
0.07849
0.07968
0.03394
0.03290
-0.06730
-0.04696
0.07878
0.07997
0.03460
0.03326
-0.06669
-0.04599
0.07901
0.08056
0.03517
0.03377
-0.06554
-0.04488
0.07978
0.07929
0.03354
0.03426
-0.06598
-0.04536
0.07955
0.07987
0.03425
0.03365
-0.06547
-0.04471
0.07937
0.07994
0.03422
0.03382
-0.06576
-0.04510
0.07997
0.07978
0.03424
0.03429
-0.06566
-0.04512
0.07978
0.07967
0.03398
0.03402
-0.06886
-0.04808
0.08061
0.07963
0.03378
0.03525
-0.06562
-0.04518
0.08029
0.07669
0.03174
0.03434
-0.06196
-0.03980
0.07978
0.07547
0.02828
0.03320
-0.06982
-0.05074
0.07839
0.08348
0.04075
0.03503
-0.06563
-0.04502
0.07604
0.08138
0.03454
0.03001
-0.05506
-0.04372
0.08370
0.06307
0.02793
0.04115
-0.06774
-0.04819
0.08038
0.07772
0.03317
0.03578
-0.06576
-0.04714
0.08050
0.07417
0.03090
0.03690
-0.04725
-0.03697
0.07751
0.05994
0.02546
0.03207
-0.03118
-0.25351
0.12908
0.15971
0.02537
0.02548
-0.06621
-0.05366
0.08052
0.08976
0.04878
0.04551
-0.06438
-0.04818
0.07491
0.08420
0.04181
0.03656
-0.03432
0.12702
0.11476
0.02584
0.02577
-0.05813
-0.03766
0.08731
0.06876
0.02358
0.04065
-0.05893
-0.03977
0.08256
0.07055
0.02737
0.03704
-0.06526
-0.04457
0.07960
0.07988
0.03405
0.03407
-0.06576
-0.04523
0.07946
0.08050
0.03476
0.03365
-0.06602
-0.04556
0.08052
0.07960
0.03387
0.03480
-0.06520
-0.04454
0.07967
0.07964
0.03377
0.03406
-0.06567
-0.04495
0.08002
0.07982
0.03427
0.03441
-0.06549
-0.04485
0.07990
0.08013
0.03444
0.03433
-0.06565
-0.04503
0.08012
0.07998
0.03433
0.03447
-0.06541
-0.04477
0.07985
0.08008
0.03437
0.03415
-0.06539
-0.04458
0.08012
0.07968
0.03399
0.03445
-0.06524
-0.04450
0.07994
0.07968
0.03398
0.03426
-0.06723
-0.04750
0.08452
0.07505
0.03128
0.04053
-0.06668
-0.04576
0.08288
0.07785
0.03228
0.03600
-0.06168
-0.03972
0.07348
0.08149
0.03462
0.02737
-0.06398
-0.04369
0.07779
0.07998
0.03398
0.03224
-0.06924
-0.04863
0.08175
0.08074
0.03599
0.03578
-0.06640
-0.04557
0.08065
0.07893
0.03357
0.03475
-0.06620
-0.04558
0.08099
0.07712
0.03222
0.03559
-0.06410
-0.04264
0.07617
0.08041
0.03406
0.02970
-0.06475
-0.04417
0.07869
0.07967
0.03386
0.03291
-0.06809
-0.04786
0.08078
0.08022
0.03540
0.03516
0.06938
0.06915
0.01917
0.02293
0.01887
0.01651
0.07046
0.07016
0.01669
0.02522
0.02070
0.01390
0.07164
0.07200
0.01922
0.02093
0.01821
0.01588
0.07016
0.07049
0.01972
0.02191
0.01959
0.01628
0.07705
0.08014
0.01605
0.01814
0.01844
0.00968
0.07285
0.07231
0.01863
0.02052
0.01696
0.01570
0.06764
0.06822
0.02052
0.02161
0.01863
0.01732
0.07971
0.07027
0.03118
0.02326
0.01318
0.03032
0.07699
0.07515
0.01815
0.01698
0.01122
0.01674
0.11880
-0.17155
0.07970
0.02561
0.07752
0.02521
0.09061
0.08533
0.01069
0.01881
0.00992
0.01274
0.14169
-0.03494
0.07148
0.02559
0.09856
0.02542
0.07449
0.07538
0.03411
0.00922
0.00669
0.03024
0.07657
0.07498
0.01857
0.01820
0.01443
0.01595
0.06496
0.06282
0.02902
0.01986
0.01519
0.02822
0.07178
0.07180
0.02084
0.02035
0.01705
0.01774
0.07256
0.07270
0.02005
0.01991
0.01691
0.01690
0.07221
0.07228
0.02046
0.02065
0.01748
0.01736
0.07186
0.07170
0.02024
0.02104
0.01781
0.01696
0.07209
0.07218
0.02049
0.02063
0.01747
0.01740
0.07239
0.07265
0.02064
0.02009
0.01696
0.01739
0.07214
0.07212
0.02070
0.02065
0.01742
0.01747
0.07233
0.07228
0.02077
0.02024
0.01700
0.01778
0.07101
0.07107
0.02166
0.02033
0.01727
0.01807
0.07123
0.07195
0.01790
0.02048
0.01787
0.01424
0.07058
0.07091
0.01967
0.02155
0.01853
0.01656
0.06998
0.07006
0.01864
0.02119
0.01810
0.01545
0.07101
0.07127
0.01913
0.02167
0.01857
0.01612
0.07192
0.07248
0.01974
0.01677
0.01381
0.01572
0.07306
0.07308
0.01975
0.02004
0.01670
0.01635
0.07109
0.07122
0.02006
0.02040
0.01739
0.01636
0.07251
0.07272
0.01949
0.02025
0.01717
0.01645
0.07168
0.07132
0.01979
0.02060
0.01743
0.01658
0.07132
0.07143
0.02073
0.02047
0.01724
0.01769
0.07077
0.07105
0.01926
0.01963
0.01637
0.01604
0.07238
0.07235
0.01990
0.01858
0.01587
0.01662
0.07461
0.07877
0.02136
0.01427
0.01590
0.01330
0.07216
0.07421
0.02027
0.01674
0.01552
0.01463
0.07183
0.07192
0.02106
0.01992
0.01658
0.01780
0.07209
0.07195
0.01971
0.02031
0.01717
0.01629
0.07001
0.06962
0.02056
0.02053
0.01723
0.01720
0.07213
0.07218
0.02021
0.02064
0.01752
0.01711
0.07183
0.07194
0.02045
0.02074
0.01756
0.01734
0.07218
0.07215
0.02055
0.02027
0.01706
0.01730
0.07228
0.07229
0.02062
0.02042
0.01718
0.01740
0.07216
0.07209
0.02081
0.02025
0.01705
0.01766
0.07237
0.07257
0.02002
0.01894
0.01605
0.01698
0.07157
0.07150
0.02095
0.02026
0.01720
0.01771
0.06910
0.08453
0.01685
0.03209
0.04038
0.00305
0.13597
0.11201
0.08424
0.02508
0.10796
0.02507
0.07680
0.07449
0.01899
0.01674
0.01162
0.01683
0.10532
-0.09185
0.06395
0.02574
0.04928
0.02573
0.07373
0.07301
0.02425
0.01405
0.01111
0.02079
0.06792
0.06694
0.02246
0.02008
0.01680
0.02003
0.06296
0.06394
0.02537
0.02320
0.02008
0.02111
0.07524
0.07457
0.01386
0.02286
0.02000
0.01111
0.07342
0.07348
0.01537
0.02251
0.02019
0.01162
0.07142
0.07149
0.02081
0.02067
0.01768
0.01775
0.07236
0.07267
0.01868
0.02160
0.01800
0.01565
0.07218
0.07255
0.01910
0.02130
0.01792
0.01579
0.06721
0.07014
-0.00802
-0.01065
0.07776
-0.00102
-0.00872
0.06358
-0.00951
0.00136
0.07699
-0.00266
-0.01368
0.00001
-0.00458
0.07116
0.07064
-0.00633
-0.00593
0.07101
-0.00553
-0.00550
0.07106
-0.00584
-0.00583
0.07131
-0.00554
-0.00564
-0.00526
-0.00599
0.07041
0.06998
-0.00713
-0.00666
0.07144
-0.00542
-0.00619
0.07123
0.06961
-0.00755
-0.00621
-0.00526
-0.00607
-0.00668
-0.00517
0.07017
0.07007
-0.00731
-0.00697
0.06963
0.07149
-0.00581
-0.00692
0.07130
-0.00586
-0.00724
-0.00516
-0.00638
-0.00487
-0.00610
0.07103
0.07069
-0.00620
-0.00569
0.07103
-0.00569
-0.00592
0.07117
-0.00567
-0.00602
0.07089
-0.00572
-0.00565
-0.00601
-0.00587
0.07189
0.07022
-0.00598
-0.00400
0.06732
-0.00875
-0.00565
0.06834
-0.00990
-0.00819
0.07343
-0.00132
-0.00615
-0.00521
-0.00992
0.06272
0.08983
-0.01430
-0.02603
0.06188
-0.00211
-0.00427
0.04972
-0.01252
0.00341
0.10820
-0.01611
-0.04602
-0.02567
-0.03719
0.08753
0.07527
-0.00851
-0.00004
0.08871
0.07117
-0.01338
-0.00333
-0.02076
-0.02168
0.05797
-0.01275
0.00109
-0.01042
-0.00198
0.07077
0.07123
-0.00580
-0.00589
0.07158
-0.00529
-0.00612
0.07089
-0.00591
-0.00524
0.07104
-0.00604
-0.00588
-0.00557
-0.00545
0.07110
0.07135
-0.00549
-0.00559
0.07132
0.07121
-0.00556
-0.00542
-0.00555
-0.00575
0.07103
-0.00573
-0.00543
-0.00582
-0.00561
0.07451
0.06693
-0.00803
-0.00124
0.06862
-0.00756
-0.00363
0.07238
-0.00615
-0.01070
0.07161
-0.00625
-0.00841
-0.00352
-0.00396
0.07218
0.06976
-0.00646
-0.00492
0.06868
-0.00724
-0.00445
0.07163
-0.00604
-0.00888
0.07102
-0.00626
-0.00741
-0.00473
-0.00479
0.05500
0.05326
0.07402
0.07564
0.05465
0.05548
0.07681
0.07582
-0.01298
-0.01355
0.04883
-0.01217
-0.01254
0.04690
-0.01501
0.04776
-0.01442
0.04848
0.05893
0.05223
0.07356
0.08143
0.05354
0.05747
0.07781
0.07410
-0.01528
-0.01721
0.05122
-0.01442
-0.01736
0.04396
-0.01611
0.04732
-0.01545
0.05153
0.05106
0.05967
0.08365
0.07591
0.05451
0.08063
0.08477
0.06220
-0.02503
-0.01948
0.05314
-0.00019
-0.01845
0.03879
-0.02077
0.05160
-0.04538
0.02162
0.06390
0.04070
0.06666
0.08907
0.06874
0.07555
0.09095
0.08503
0.01417
-0.00586
0.04015
-0.02405
-0.01465
0.04583
-0.04174
0.00331
-0.02708
0.06734
0.06299
0.05369
0.07533
0.08633
0.05331
0.06443
0.08306
0.07229
-0.01856
-0.02059
0.05441
-0.01896
-0.02291
0.04374
-0.01900
0.04771
-0.01863
0.06070
0.05639
0.05665
0.07745
0.07715
0.05656
0.05602
0.07708
0.07767
-0.01562
-0.01687
0.05002
-0.01718
0.04963
-0.01504
-0.01630
0.05010
-0.01657
0.04931
0.05634
0.05624
0.07709
0.07738
0.05617
0.05632
0.07714
0.07724
-0.01419
-0.01563
0.04954
-0.01434
-0.01575
0.04967
-0.01555
0.04940
-0.01574
0.04976
0.05648
0.05660
0.07751
0.07748
0.05661
0.05651
0.07737
0.07758
-0.01452
-0.01597
0.04979
-0.01471
-0.01615
0.04990
-0.01587
0.04990
-0.01606
0.04998
0.05757
0.05560
0.07636
0.07796
0.05470
0.05777
0.07967
0.07575
-0.01540
-0.01657
0.05174
-0.01712
0.04768
-0.01477
-0.01603
0.04900
-0.01634
0.05054
0.05418
0.05534
0.07655
0.07547
0.05483
0.05471
0.07560
0.07595
-0.01359
-0.01526
0.04720
-0.01331
-0.01484
0.04870
-0.01495
0.04822
-0.01471
0.04822
0.05762
0.05509
0.07508
0.07799
0.05389
0.05759
0.07908
0.07540
-0.01652
-0.01734
0.05166
-0.01900
0.04544
-0.01822
-0.01887
0.04949
-0.02051
0.04938
0.05567
0.05727
0.07802
0.07625
0.05705
0.05568
0.07682
0.07808
-0.01501
-0.01646
0.04922
-0.01631
0.05029
-0.01516
-0.01663
0.05076
-0.01642
0.04875
0.05629
0.05534
0.07615
0.07756
0.05555
0.05648
0.07721
0.07658
-0.01454
-0.01601
0.04924
-0.01464
-0.01609
0.04880
-0.01591
0.04882
-0.01599
0.05000
0.05605
0.05571
0.07629
0.07670
0.05597
0.05661
0.07781
0.07754
-0.01624
-0.01688
0.04979
-0.01636
-0.01707
0.04959
-0.01818
0.04898
-0.01993
0.04770
0.05657
0.05522
0.07597
0.07718
0.05413
0.05677
0.07754
0.07504
-0.01694
-0.01817
0.05021
-0.01832
0.04701
-0.01712
-0.01797
0.04908
-0.01970
0.04848
0.05736
0.05595
0.07661
0.07811
0.05592
0.05709
0.07811
0.07699
-0.01556
-0.01712
0.05081
-0.01676
0.04906
-0.01543
-0.01695
0.04943
-0.01667
0.05031
0.05649
0.05535
0.07663
0.07737
0.05458
0.05652
0.07759
0.07494
-0.01516
-0.01656
0.04986
-0.01649
0.04840
-0.01485
-0.01628
0.04834
-0.01616
0.04974
0.05634
0.05596
0.07678
0.07735
0.05587
0.05629
0.07716
0.07697
-0.01421
-0.01570
0.04960
-0.01553
0.04906
-0.01432
-0.01577
0.04940
-0.01568
0.04969
0.05648
0.05648
0.07742
0.07733
0.05649
0.05658
0.07753
0.07742
-0.01474
-0.01618
0.04986
-0.01478
-0.01617
0.04977
-0.01609
0.04979
-0.01615
0.04991
0.05628
0.05611
0.07715
0.07721
0.05593
0.05666
0.07774
0.07668
-0.01531
-0.01652
0.04968
-0.01478
-0.01606
0.04936
-0.01691
0.04939
-0.01631
0.04993
0.04536
0.05753
0.07963
0.07045
0.05185
0.08297
0.08136
0.05413
-0.02252
-0.01320
0.05061
-0.01703
0.04992
0.01164
-0.00491
0.04027
-0.04968
0.00291
0.05812
0.05325
0.08090
0.07976
0.07128
0.06012
0.07396
0.08197
-0.00777
-0.02337
0.04493
-0.02222
-0.01932
0.05020
-0.03500
0.03655
-0.02228
0.05369
0.05671
0.05297
0.07395
0.07811
0.05399
0.05771
0.07829
0.07427
-0.01501
-0.01610
0.04987
-0.01652
0.04775
-0.01526
-0.01684
0.04528
-0.01665
0.05169
0.09680
-0.13944
-0.05622
-0.00981
0.14555
-0.09802
-0.12376
0.13105
-0.01651
-0.19347
-0.08638
0.08747
0.04520
0.06142
0.08303
0.06630
0.05810
0.04776
0.06884
0.07973
-0.00528
-0.00598
0.03883
-0.00814
0.05056
-0.01037
-0.01177
0.05373
-0.01213
0.04163
0.04941
0.05818
0.07904
0.06891
0.05656
0.05048
0.07233
0.07802
-0.01120
-0.01199
0.04357
-0.01339
0.04968
-0.01112
-0.01163
0.05155
-0.01338
0.04305
0.05639
0.05656
0.07746
0.07726
0.05654
0.05632
0.07729
0.07751
-0.01449
-0.01595
0.04976
-0.01583
0.04982
-0.01453
-0.01598
0.04990
-0.01587
0.04958
0.05587
0.05656
0.07752
0.07690
0.05635
0.05508
0.07585
0.07736
-0.01392
-0.01556
0.04911
-0.01498
0.04975
-0.01396
-0.01561
0.04997
-0.01501
0.04855
0.05599
0.05637
0.07732
0.07696
0.05619
0.05547
0.07643
0.07715
-0.01409
-0.01556
0.04930
-0.01540
0.04960
-0.01402
-0.01554
0.04982
-0.01527
0.04875
0.05784
0.05770
0.07925
0.07826
0.05783
0.05734
0.07842
0.07800
-0.01921
-0.02092
0.05147
-0.02019
0.05197
-0.01697
-0.01854
0.05048
-0.01816
0.05040
-0.01373
-0.01899
-0.01257
-0.02209
0.08215
0.08382
-0.01914
-0.02123
0.09133
-0.01643
-0.00882
0.07892
-0.01592
-0.02482
0.09678
-0.01667
-0.01793
-0.01627
-0.01758
0.08553
0.08444
-0.01739
-0.01689
0.08541
-0.01698
-0.01723
0.08580
-0.01739
-0.01714
0.08599
-0.01701
-0.01852
-0.01660
-0.01826
0.08569
0.08262
-0.01792
-0.01766
0.08619
-0.01694
-0.01947
-0.01631
-0.01782
0.08551
0.08419
-0.01632
-0.01910
-0.01606
-0.01842
0.08406
0.08460
-0.01728
-0.01760
-0.01738
-0.01826
0.08447
0.08619
-0.01795
-0.01888
0.08509
-0.01711
-0.01772
-0.01715
-0.01701
0.08528
0.08501
-0.01749
-0.01754
0.08561
-0.01705
-0.01742
0.08573
-0.01735
-0.01716
0.08560
-0.01979
-0.01757
-0.02154
-0.01480
0.08606
0.08687
-0.01716
-0.01714
0.08270
-0.01015
-0.02121
0.08372
-0.02215
-0.01707
0.08724
-0.01771
-0.02205
0.02180
-0.07584
0.08970
0.02156
-0.02289
-0.01902
0.08605
-0.02331
-0.01340
0.08618
0.04281
-0.11535
0.00007
-0.00172
-0.05206
-0.02659
-0.00794
0.05965
0.09221
0.00307
-0.05001
-0.02241
-0.01322
0.04519
0.08824
-0.01334
-0.01190
0.07614
-0.01673
-0.01739
-0.01695
-0.01724
0.08532
0.08571
-0.01748
-0.01775
0.08647
-0.01769
-0.01670
0.08542
-0.01687
-0.01725
0.08547
-0.01703
-0.01698
-0.01722
-0.01693
0.08566
0.08590
-0.01724
-0.01703
-0.01732
-0.01682
0.08586
0.08572
-0.01698
-0.01683
0.08529
-0.01943
-0.01878
-0.01858
-0.01107
0.08949
0.07850
-0.01770
-0.01573
0.08411
-0.01403
-0.02228
0.08805
-0.01580
-0.01985
0.08606
-0.01836
-0.01780
-0.01765
-0.01651
0.08633
0.08486
-0.01774
-0.01534
0.08168
-0.01541
-0.02091
0.08669
-0.01633
-0.01912
0.08579
0.04630
0.04802
0.04925
0.04691
0.04601
0.05165
0.05081
0.04285
0.05115
0.09820
-0.01639
-0.02296
0.06280
0.04778
0.03935
0.04807
0.04894
0.04813
0.04858
0.04849
0.04852
0.04894
0.04858
0.04779
0.04731
0.04573
0.04885
0.04722
0.04760
0.04957
0.04758
0.04757
0.04862
0.04891
0.04766
0.04827
0.04624
0.04895
0.04846
0.04831
0.04676
0.04851
0.04849
0.04824
0.04863
0.04865
0.04843
0.04805
0.08964
-0.02072
0.01521
0.05140
0.04851
0.04314
0.04108
0.05156
0.05033
0.04740
0.04889
0.04881
-0.04099
0.03950
0.11867
0.05019
0.24231
0.04881
-0.15184
0.06019
-0.02921
0.02485
0.16928
0.00985
-0.10819
0.08490
-0.11220
-0.10804
0.11657
-0.21478
0.17821
-0.08592
0.29900
-0.02247
0.19800
-0.04956
-0.05826
0.18987
0.18062
0.06407
-0.12318
0.01887
0.11389
-0.05095
0.04358
-0.10349
0.03393
-0.00445
-0.04022
0.13729
0.02152
-0.03406
-0.10235
-0.23432
-0.09287
0.03684
0.01052
-0.00009
-0.01281
0.02162
0.09885
-0.05643
0.01377
-0.14265
-0.08839
0.08702
-0.05246
-0.01143
-0.07626
-0.14183
-0.14628
0.03075
0.05855
-0.11520
-0.02840
0.13462
-0.14854
0.06969
-0.05593
0.06361
0.09143
-0.00860
0.13012
0.06700
-0.00218
0.02194
0.01776
0.03157
0.25829
0.15969
0.04778
-0.06683
0.05179
0.03846
0.01135
0.02424
-0.03656
0.00113
-0.09948
-0.07824
-0.15566
-0.06213
0.29245
-0.06761
-0.00271
-0.00277
0.09762
0.01016
0.05494
0.36182
0.02573
0.04282
-0.04470
0.01317
-0.21229
0.00616
0.07953
0.03351
0.17694
-0.03585
0.16605
0.08843
-0.08790
-0.12923
0.07032
-0.01293
0.06063
0.00539
0.02358
0.09560
0.10058
0.04807
0.04292
0.02011
0.01896
0.05775
-0.09677
0.25834
-0.15713
0.22307
-0.00488
0.13948
0.17733
-0.14984
0.13194
0.04341
-0.18901
0.06754
0.14230
-0.02701
-0.03344
-0.03235
0.02051
0.02928
0.08140
-0.14748
0.14039
-0.11286
-0.08580
0.11213
0.01892
0.01459
0.12436
-0.05931
-0.03578
-0.03167
-0.00056
0.19618
-0.06072
-0.07662
0.11299
-0.00566
-0.13149
-0.24235
0.13984
0.31662
0.04870
0.03409
0.18699
0.02599
-0.02359
0.22242
0.02617
0.20240
-0.11172
0.25823
0.00520
0.18911
0.24639
0.15789
0.06162
-0.08196
-0.07213
0.02539
0.10623
-0.00359
-0.08910
0.06533
-0.10662
-0.00550
0.07705
0.07178
0.00913
-0.06502
0.01181
-0.17055
0.12757
0.01518
0.13186
-0.17041
0.09326
0.14451
0.09490
0.27641
0.37487
-0.15260
-0.00819
0.00271
-0.05115
-0.03462
-0.09886
-0.00209
-0.20208
-0.12356
0.01089
-0.13153
-0.06071
0.10501
0.10976
0.08103
0.28515
0.14129
0.18465
0.12983
0.24365
0.04152
-0.12661
0.04678
-0.02369
0.24963
0.14393
-0.04334
-0.25648
0.06527
-0.03081
0.08233
0.01859
0.09240
0.07490
-0.18539
0.26310
0.11004
0.29575
-0.01122
0.01013
0.12778
0.11949
-0.03131
-0.08717
0.10664
-0.02264
-0.03447
0.22337
-0.02076
0.02122
0.05860
0.08005
-0.16388
0.12459
0.12951
0.04715
-0.00752
0.11122
-0.08123
0.16739
0.17227
0.34462
0.12986
0.09702
-0.05262
0.16335
0.04068
-0.21919
0.04461
0.30814
0.17575
-0.11222
-0.18313
-0.01676
-0.12792
-0.02329
-0.00854
0.08507
0.01498
-0.08805
0.09117
-0.01894
0.00209
-0.02441
-0.19341
-0.07822
0.34568
-0.07685
-0.10154
-0.16121
-0.01709
-0.10031
0.08922
-0.10306
-0.02721
-0.14912
0.00682
-0.10920
-0.00093
-0.13754
0.11712
-0.18484
0.00429
-0.03255
-0.14213
0.03543
-0.13064
-0.12647
-0.14628
-0.15059
-0.15282
-0.23930
0.26172
0.03695
-0.08082
-0.09874
-0.12115
-0.19778
0.06175
-0.18771
-0.13546
-0.20023
-0.11895
-0.07481
0.00197
-0.07084
0.14984
-0.12758
-0.13424
-0.10677
-0.15833
-0.14745
-0.15900
-0.23022
-0.05857
0.10000
