# vtk DataFile Version 3.0
Point representing Sub_cellular elem model
ASCII

DATASET UNSTRUCTURED_GRID
POINTS 650 float
-0.00122 1.74287 1.04580 
0.00105 1.74154 -1.10248 
1.74359 1.07665 -0.02592 
1.74291 -1.07668 -0.02358 
0.00157 -1.74354 -1.10078 
-0.00020 -1.74013 1.04806 
1.07311 0.00350 1.72735 
-1.07299 0.00245 1.72650 
1.07806 -0.00140 -1.76477 
-1.07505 -0.00137 -1.76551 
-1.74257 1.07652 -0.02696 
-1.74244 -1.07776 -0.02639 
-0.00004 2.05450 -0.02830 
1.02717 1.66249 0.60507 
0.63746 1.03042 1.63427 
-0.63326 1.02657 1.63644 
-1.02739 1.66075 0.60614 
1.02819 1.66126 -0.66080 
0.63594 1.02512 -1.68484 
-0.63311 1.02517 -1.68525 
-1.02656 1.66109 -0.66118 
2.05412 -0.00046 -0.02420 
1.66066 0.63433 0.99986 
1.66282 0.63347 -1.05069 
1.02848 -1.66228 -0.65846 
1.02692 -1.65949 0.60930 
1.65836 -0.63260 1.00260 
1.66281 -0.63560 -1.04991 
0.00129 -2.05466 -0.02573 
0.63610 -1.02782 -1.68401 
-0.63291 -1.02786 -1.68445 
-1.02591 -1.66291 -0.65979 
0.63212 -1.02300 1.63892 
-0.63592 -1.02365 1.63542 
-1.02676 -1.66128 0.60698 
0.14728 -0.05186 2.24852 
-1.66029 0.63401 0.99932 
-1.66085 -0.63343 0.99910 
0.00160 -0.00149 -2.07579 
-1.66056 0.63359 -1.05207 
-1.66040 -0.63577 -1.05159 
-2.05379 -0.00048 -0.02667 
-0.00080 1.97314 0.54192 
0.52315 1.77364 0.86448 
0.32369 1.45134 1.38737 
-0.32451 1.44919 1.38851 
-0.52482 1.77195 0.86545 
0.00062 1.97266 -0.59863 
0.52489 1.77194 -0.92132 
0.32499 1.44728 -1.44360 
-0.32245 1.44729 -1.44379 
-0.52302 1.77187 -0.92153 
1.44971 1.41954 0.29611 
1.45025 1.41903 -0.34988 
1.97335 0.57120 -0.02500 
1.77278 0.89516 0.49719 
1.77391 0.89470 -0.54863 
1.97282 -0.57181 -0.02368 
1.45006 -1.41948 -0.34734 
1.44893 -1.41810 0.29962 
1.77138 -0.89418 0.49986 
1.77368 -0.89600 -0.54712 
0.52540 -1.77354 -0.91931 
0.00149 -1.97388 -0.59644 
0.32530 -1.44970 -1.44230 
-0.32210 -1.44976 -1.44256 
-0.52238 -1.77380 -0.91988 
0.52382 -1.77012 0.86812 
0.00079 -1.97199 0.54460 
0.32255 -1.44592 1.39030 
-0.32511 -1.44645 1.38911 
-0.52372 -1.77128 0.86674 
0.89934 0.52834 1.75187 
1.41795 0.32407 1.42410 
1.41583 -0.32109 1.42576 
0.89639 -0.52232 1.75341 
0.56400 -0.00172 1.97827 
-0.89713 0.52633 1.75106 
-0.90086 -0.52190 1.74977 
-0.55839 0.00541 1.98448 
-1.41768 0.32353 1.42293 
-1.41855 -0.32142 1.42242 
0.89661 0.52213 -1.79511 
1.42035 0.32231 -1.47172 
1.42037 -0.32490 -1.47142 
0.89668 -0.52494 -1.79471 
0.57301 -0.00147 -1.99462 
-0.89364 0.52218 -1.79570 
-0.89355 -0.52495 -1.79531 
-0.56985 -0.00145 -1.99496 
-1.41761 0.32238 -1.47281 
-1.41754 -0.32491 -1.47255 
-1.44905 1.41873 0.29615 
-1.44885 1.41883 -0.35051 
-1.77231 0.89489 0.49639 
-1.77228 0.89480 -0.55004 
-1.97263 0.57131 -0.02680 
-1.44841 -1.42044 -0.34952 
-1.44879 -1.41973 0.29683 
-1.77252 -0.89538 0.49659 
-1.77208 -0.89653 -0.54944 
-1.97264 -0.57238 -0.02654 
0.55677 1.95324 0.27664 
-0.55735 1.95239 0.27707 
0.55748 1.95274 -0.33317 
-0.55668 1.95240 -0.33315 
0.90123 1.39725 1.17549 
1.05232 1.76393 -0.02775 
1.39579 1.20699 0.87182 
0.00239 1.05845 1.73506 
1.20759 0.90243 1.36671 
0.30257 0.55167 1.94988 
-0.90079 1.39390 1.17767 
-0.30179 0.55535 1.95025 
-1.20531 0.89987 1.36800 
-1.05170 1.76321 -0.02760 
-1.39504 1.20535 0.87275 
0.90214 1.39423 -1.23116 
1.39690 1.20560 -0.92564 
0.00145 1.04954 -1.78659 
1.20778 0.89933 -1.41903 
0.30712 0.55497 -1.97464 
-0.89977 1.39426 -1.23169 
-0.30404 0.55499 -1.97482 
-1.20515 0.89942 -1.41989 
-1.39480 1.20565 -0.92656 
1.95153 0.30537 0.53136 
1.95337 0.30484 -0.58076 
1.95086 -0.30537 0.53236 
1.95326 -0.30648 -0.58025 
1.76080 0.00033 1.02606 
1.76447 -0.00112 -1.07462 
1.05258 -1.76318 -0.02443 
1.39696 -1.20735 -0.92405 
0.55829 -1.95304 -0.33041 
0.90239 -1.39637 -1.22969 
1.39362 -1.20370 0.87611 
0.55783 -1.95184 0.28003 
0.89912 -1.39167 1.18028 
1.20332 -0.89752 1.37103 
1.20789 -0.90181 -1.41816 
-0.55564 -1.95364 -0.33125 
-0.55599 -1.95283 0.27891 
0.00163 -1.05231 -1.78579 
0.30719 -0.55789 -1.97425 
-0.89937 -1.39658 -1.23052 
-0.30396 -0.55789 -1.97443 
-1.20494 -0.90191 -1.41917 
-1.05087 -1.76446 -0.02627 
-1.39444 -1.20774 -0.92562 
-0.00188 -1.05334 1.73664 
0.29217 -0.54683 1.95579 
-0.90116 -1.39316 1.17756 
-0.31300 -0.54931 1.94756 
-1.20657 -0.89866 1.36724 
-1.39539 -1.20546 0.87276 
-1.76224 0.00048 1.02364 
-1.95186 0.30554 0.52939 
-1.95200 -0.30564 0.52942 
-1.76217 -0.00110 -1.07626 
-1.95184 0.30494 -0.58271 
-1.95179 -0.30664 -0.58251 
-0.00111 1.87444 0.80494 
0.26007 1.77517 0.96573 
0.16043 1.61406 1.22639 
-0.16249 1.61321 1.22682 
-0.26232 1.77417 0.96623 
0.00087 1.87363 -0.86172 
0.26217 1.77357 -1.02259 
0.16256 1.61168 -1.28298 
-0.16022 1.61168 -1.28307 
-0.26018 1.77354 -1.02272 
1.61401 1.25799 0.13470 
1.61431 1.25777 -0.18745 
1.87503 0.83509 -0.02545 
1.77509 0.99666 0.23489 
1.77564 0.99640 -0.28650 
1.87437 -0.83541 -0.02358 
1.61385 -1.25799 -0.18494 
1.61321 -1.25735 0.13762 
1.77409 -0.99616 0.23739 
1.77521 -0.99711 -0.28456 
0.26270 -1.77539 -1.02075 
0.00154 -1.87528 -0.85978 
0.16297 -1.61391 -1.28146 
-0.15978 -1.61395 -1.28160 
-0.25959 -1.77551 -1.02101 
0.26105 -1.77190 0.96873 
0.00036 -1.87252 0.80750 
0.16060 -1.61002 1.22887 
-0.16213 -1.61038 1.22833 
-0.26114 -1.77252 0.96798 
0.99973 0.26426 1.75633 
1.25662 0.16246 1.59175 
1.25593 -0.15759 1.59219 
0.99979 -0.25697 1.75626 
0.83152 0.00432 1.86625 
-1.00063 0.26219 1.75445 
-1.00304 -0.25705 1.75375 
-0.82968 0.00355 1.86778 
-1.25715 0.16125 1.58991 
-1.25806 -0.15778 1.58948 
0.99803 0.25958 -1.79672 
1.25911 0.15995 -1.63551 
1.25912 -0.16267 -1.63538 
0.99806 -0.26240 -1.79652 
0.83669 -0.00144 -1.89620 
-0.99502 0.25962 -1.79739 
-0.99497 -0.26239 -1.79719 
-0.83359 -0.00142 -1.89674 
-1.25621 0.16000 -1.63643 
-1.25618 -0.16266 -1.63630 
-1.61313 1.25759 0.13415 
-1.61307 1.25760 -0.18826 
-1.77439 0.99645 0.23393 
-1.77433 0.99641 -0.28776 
-1.87413 0.83511 -0.02687 
-1.61279 -1.25904 -0.18749 
-1.61296 -1.25871 0.13479 
-1.77441 -0.99736 0.23433 
-1.77415 -0.99790 -0.28717 
-1.87409 -0.83627 -0.02647 
-0.00043 2.03404 0.26134 
0.00031 2.03380 -0.31798 
0.28487 2.02893 0.11978 
-0.28528 2.02855 0.11995 
0.28525 2.02874 -0.17643 
-0.28492 2.02850 -0.17636 
0.78160 1.73586 0.74309 
1.25221 1.55594 0.45452 
0.80599 1.83007 0.44104 
0.98206 1.54531 0.90091 
1.04669 1.73812 0.29334 
1.22256 1.45315 0.75343 
0.48555 1.25626 1.52367 
0.77786 0.78724 1.70999 
0.78424 1.22494 1.42192 
0.32847 1.05459 1.70758 
0.93370 0.98540 1.51517 
0.47424 0.80777 1.80993 
-0.48404 1.25274 1.52562 
-0.77376 0.78539 1.71015 
-0.32390 1.05214 1.70902 
-0.78238 1.22087 1.42437 
-0.46758 0.80658 1.81117 
-0.93060 0.98198 1.51680 
-0.78253 1.73392 0.74429 
-1.25189 1.55463 0.45515 
-0.80652 1.82873 0.44180 
-0.98225 1.54282 0.90256 
-1.04657 1.73696 0.29390 
-1.22226 1.45127 0.75460 
0.78295 1.73429 -0.79956 
1.25296 1.55507 -0.50934 
0.80692 1.82918 -0.49728 
1.04727 1.73751 -0.34890 
0.98325 1.54333 -0.95679 
1.22358 1.45171 -0.80839 
0.48445 1.24986 -1.57908 
0.77476 0.78001 -1.75760 
0.78422 1.22059 -1.47628 
0.32332 1.04425 -1.76053 
0.93267 0.98028 -1.56755 
0.47177 0.80402 -1.85183 
-0.48175 1.24990 -1.57938 
-0.77184 0.78006 -1.75811 
-0.32045 1.04427 -1.76073 
-0.78159 1.22064 -1.47678 
-0.46880 0.80406 -1.85213 
-0.92992 0.98035 -1.56817 
-0.78120 1.73417 -0.79985 
-1.25144 1.55487 -0.50982 
-0.80567 1.82889 -0.49743 
-1.04612 1.73712 -0.34906 
-0.98122 1.54329 -0.95729 
-1.22167 1.45166 -0.80904 
2.03385 0.28983 -0.02457 
2.03355 -0.29067 -0.02389 
2.02784 0.14812 0.26019 
2.02888 0.14779 -0.30900 
2.02761 -0.14862 0.26060 
2.02878 -0.14910 -0.30871 
1.73437 0.77317 0.75481 
1.55407 0.48303 1.22510 
1.54402 0.93143 0.95381 
1.45224 0.78321 1.19418 
1.82804 0.47007 0.77966 
1.73556 0.32179 1.01996 
1.73607 0.77254 -0.80607 
1.55646 0.48182 -1.27489 
1.54549 0.93031 -1.00618 
1.45363 0.78160 -1.24585 
1.83029 0.46941 -0.82976 
1.73848 0.32079 -1.06956 
1.25304 -1.55579 -0.50686 
0.78338 -1.73562 -0.79738 
1.04756 -1.73772 -0.34607 
1.22373 -1.45313 -0.80641 
0.80744 -1.82980 -0.49467 
0.98353 -1.54499 -0.95491 
1.25160 -1.55366 0.45852 
0.78182 -1.73241 0.74717 
1.04680 -1.73630 0.29713 
1.22130 -1.44975 0.75786 
0.80654 -1.82781 0.44486 
0.98110 -1.54103 0.90549 
1.73251 -0.77179 0.75760 
1.55156 -0.48087 1.22749 
1.82668 -0.46938 0.78145 
1.73421 -0.32081 1.02143 
1.54143 -0.92878 0.95753 
1.44889 -0.78000 1.19785 
1.73598 -0.77431 -0.80495 
1.55648 -0.48422 -1.27438 
1.83022 -0.47133 -0.82909 
1.73847 -0.32300 -1.06917 
1.54550 -0.93229 -1.00500 
1.45368 -0.78392 -1.24501 
0.00142 -2.03452 -0.31558 
0.00110 -2.03358 0.26402 
0.28635 -2.02889 -0.17368 
0.28617 -2.02835 0.12275 
-0.28368 -2.02926 -0.17415 
-0.28384 -2.02883 0.12222 
0.48468 -1.25245 -1.57801 
0.77487 -0.78278 -1.75699 
0.78443 -1.22307 -1.47516 
0.93281 -0.98288 -1.56669 
0.32350 -1.04701 -1.75971 
0.47189 -0.80686 -1.85123 
-0.48148 -1.25250 -1.57836 
-0.77169 -0.78280 -1.75751 
-0.32026 -1.04703 -1.75992 
-0.78130 -1.22317 -1.47578 
-0.46867 -0.80687 -1.85153 
-0.92970 -0.98295 -1.56739 
-0.78053 -1.73605 -0.79831 
-1.25087 -1.55660 -0.50862 
-0.80483 -1.83047 -0.49580 
-0.98070 -1.54537 -0.95599 
-1.04535 -1.73866 -0.34766 
-1.22118 -1.45365 -0.80787 
0.48252 -1.24959 1.52742 
0.77274 -0.78126 1.71323 
0.78061 -1.21819 1.42673 
0.92886 -0.97910 1.51963 
0.32365 -1.04788 1.71110 
0.46722 -0.80088 1.81451 
-0.48576 -1.25012 1.52532 
-0.77725 -0.78192 1.70884 
-0.32747 -1.04816 1.70892 
-0.78362 -1.21920 1.42378 
-0.47278 -0.80228 1.80957 
-0.93242 -0.98007 1.51584 
-0.78165 -1.73398 0.74527 
-1.25148 -1.55545 0.45589 
-0.80544 -1.82927 0.44314 
-1.04577 -1.73789 0.29505 
-0.98201 -1.54281 0.90296 
-1.22216 -1.45164 0.75496 
0.37344 -0.06664 2.10524 
-0.04655 -0.21644 2.23792 
0.28247 0.16827 2.13580 
-0.07418 0.43826 2.07526 
0.21925 -0.32577 2.11841 
-0.24747 -0.37109 2.09059 
-1.55364 0.48266 1.22440 
-1.73401 0.77288 0.75419 
-1.45098 0.78195 1.19460 
-1.54320 0.93039 0.95414 
-1.73605 0.32193 1.01844 
-1.82823 0.47017 0.77828 
-1.55435 -0.48145 1.22401 
[...]
CELL_DATA 1942
SCALARS Strain double 
LOOKUP_TABLE default 
-0.08883
-0.08635
-0.08872
-0.08720
-0.08784
-0.08829
-0.08720
-0.08757
-0.08782
-0.08698
-0.08790
-0.08708
-0.08695
-0.08827
-0.08852
-0.08775
-0.08733
-0.08806
-0.08738
-0.08781
-0.08709
-0.08812
-0.08773
-0.08758
-0.08719
-0.08739
-0.08836
-0.08787
-0.08743
-0.08744
-0.09551
-0.07674
-0.07491
-0.09650
-0.07480
-0.10002
-0.10313
-0.06588
-0.07401
-0.06864
-0.08752
-0.08761
-0.08755
-0.08756
-0.08755
-0.08751
-0.08747
-0.08761
-0.08760
-0.08765
-0.08777
-0.08727
-0.08782
-0.08807
-0.08720
-0.08698
-0.08782
-0.08796
-0.08841
-0.08684
-0.03596
-0.03580
0.06945
0.07074
0.07066
0.06940
-0.03355
-0.03397
0.07022
0.06701
0.06696
0.07074
-0.02460
-0.03443
0.07314
0.05737
0.07053
0.08636
-0.02806
-0.04153
0.05839
0.07563
0.08283
0.07436
-0.03549
-0.03512
0.07073
0.06970
0.06897
0.07017
-0.03358
-0.03354
0.07015
0.06790
0.06830
0.07004
-0.03408
-0.03407
0.06911
0.06977
0.06974
0.06924
-0.03420
-0.03414
0.06976
0.06923
0.06933
0.06972
-0.03335
-0.03340
0.06946
0.06852
0.06870
0.06960
-0.03387
-0.03406
0.06885
0.06930
0.06947
0.06906
-0.03341
-0.03215
0.07063
0.06739
0.06805
0.06913
-0.03464
-0.03448
0.06996
0.06961
0.06950
0.06992
-0.03349
-0.03346
0.06883
0.06943
0.06939
0.06894
-0.03537
-0.03549
0.06935
0.06989
0.07037
0.06996
-0.03262
-0.03203
0.07005
0.06717
0.06775
0.06930
-0.03433
-0.03427
0.06952
0.06973
0.06966
0.06962
-0.03537
-0.03547
0.06973
0.07014
0.07009
0.06994
-0.03421
-0.03418
0.06934
0.06976
0.06977
0.06941
-0.03405
-0.03403
0.06972
0.06917
0.06927
0.06969
-0.03348
-0.03343
0.06989
0.06859
0.06832
0.06991
-0.02549
-0.03931
0.07670
0.07179
0.05503
0.08784
-0.02660
-0.03894
0.05589
0.07507
0.08065
0.07123
-0.03496
-0.03477
0.07095
0.06826
0.06884
0.07083
-0.10979
-0.15507
-0.06422
-0.04003
0.03475
-0.11237
-0.03239
-0.03313
0.06983
0.06861
0.06808
0.07019
-0.03188
-0.03295
0.06825
0.06964
0.06883
0.06885
-0.03408
-0.03410
0.06938
0.06945
0.06946
0.06939
-0.03443
-0.03453
0.06952
0.06997
0.07003
0.06939
-0.03455
-0.03469
0.06959
0.07009
0.07011
0.06951
-0.03339
-0.03330
0.06932
0.06877
0.06886
0.06923
-0.06727
-0.04679
0.07925
0.08112
0.03543
0.03361
-0.06412
-0.04374
0.07933
0.07746
0.03170
0.03406
-0.06656
-0.04447
0.07755
0.08225
0.03641
0.03150
-0.06507
-0.04444
0.08091
0.07859
0.03251
0.03375
-0.06643
-0.04617
0.08112
0.07871
0.03299
0.03538
-0.06670
-0.04636
0.08060
0.07991
0.03442
0.03510
-0.06516
-0.04446
0.08038
0.07887
0.03289
0.03449
-0.06558
-0.04491
0.07919
0.08030
0.03456
0.03376
-0.06581
-0.04509
0.08033
0.07940
0.03393
0.03463
-0.06489
-0.04418
0.07979
0.07912
0.03317
0.03407
-0.06600
-0.04518
0.07788
0.08120
0.03519
0.03237
-0.06501
-0.04434
0.07809
0.08030
0.03453
0.03284
-0.06503
-0.04451
0.07878
0.07959
0.03392
0.03334
-0.06621
-0.04508
0.08102
0.07855
0.03274
0.03470
-0.06647
-0.04564
0.08038
0.07976
0.03434
0.03474
-0.06581
-0.04506
0.07966
0.07977
0.03405
0.03393
-0.06519
-0.04440
0.07944
0.07960
0.03375
0.03370
-0.06641
-0.04603
0.07978
0.07986
0.03465
0.03467
-0.06508
-0.04397
0.07955
0.07921
0.03308
0.03345
-0.06588
-0.04521
0.07986
0.07977
0.03426
0.03435
-0.06503
-0.04431
0.07987
0.07927
0.03340
0.03409
-0.06644
-0.04601
0.08004
0.08032
0.03479
0.03459
-0.06575
-0.04507
0.07950
0.08028
0.03459
0.03400
-0.06559
-0.04490
0.08025
0.07934
0.03385
0.03453
-0.06513
-0.04438
0.08018
0.07911
0.03320
0.03438
-0.06580
-0.04573
0.08013
0.07908
0.03326
0.03468
-0.06678
-0.04629
0.08010
0.08016
0.03422
0.03448
-0.06556
-0.04384
0.07913
0.08072
0.03395
0.03275
-0.06515
-0.04401
0.08058
0.07864
0.03289
0.03378
-0.06566
-0.04538
0.08056
0.07838
0.03259
0.03537
-0.06191
-0.04038
0.07954
0.08661
0.03896
0.03689
-0.05947
-0.04119
0.07795
0.07647
0.03505
0.03428
-0.06091
-0.04200
0.07675
0.07826
0.03579
0.03361
-0.05446
-0.03801
0.07780
0.07005
0.03326
0.03649
-0.03689
-0.20976
0.13561
0.11861
0.02625
0.02657
-0.05804
-0.03773
0.07343
0.08110
0.03046
0.03343
-0.05742
-0.03452
0.07969
0.07438
0.02157
0.03459
-0.01946
0.13588
0.15461
0.02561
0.02612
-0.06103
-0.04223
0.08049
0.07599
0.03348
0.03703
-0.05833
-0.04110
0.07590
0.07676
0.03469
0.03406
-0.06555
-0.04490
0.07988
0.07967
0.03392
0.03422
-0.06573
-0.04517
0.07985
0.07998
0.03435
0.03413
-0.06563
-0.04503
0.07994
0.07982
0.03410
0.03424
-0.06561
-0.04498
0.07987
0.07977
0.03406
0.03422
-0.06557
-0.04491
0.07971
0.07979
0.03411
0.03404
-0.06555
-0.04493
0.07973
0.07979
0.03417
0.03397
-0.06550
-0.04484
0.07967
0.07981
0.03416
0.03391
-0.06562
-0.04494
0.07978
0.07972
0.03406
0.03412
-0.06572
-0.04516
0.07973
0.08009
0.03439
0.03400
-0.06578
-0.04524
0.07977
0.08011
0.03445
0.03407
-0.06605
-0.04567
0.07920
0.08029
0.03489
0.03408
-0.06513
-0.04432
0.07898
0.08003
0.03406
0.03337
-0.06565
-0.04456
0.07991
0.07959
0.03377
0.03400
-0.06614
-0.04544
0.08027
0.07968
0.03428
0.03476
-0.06513
-0.04434
0.07953
0.07947
0.03369
0.03374
-0.06491
-0.04423
0.07856
0.08030
0.03438
0.03311
-0.06603
-0.04550
0.07864
0.08106
0.03533
0.03347
-0.06578
-0.04458
0.08080
0.07888
0.03311
0.03470
-0.06644
-0.04567
0.08050
0.07987
0.03442
0.03495
-0.06478
-0.04410
0.07892
0.07969
0.03396
0.03332
0.07204
0.07226
0.02166
0.01804
0.01503
0.01827
0.07330
0.07333
0.01984
0.01911
0.01584
0.01663
0.07303
0.07284
0.02080
0.01885
0.01531
0.01771
0.07187
0.07189
0.02149
0.01924
0.01589
0.01834
0.06990
0.07122
0.02208
0.01991
0.01710
0.01906
0.06963
0.06998
0.02121
0.02096
0.01800
0.01784
0.07389
0.07393
0.01894
0.01905
0.01626
0.01625
0.08654
0.08692
0.01650
0.01860
0.01482
0.01035
0.07040
0.06982
0.02185
0.02320
0.02041
0.01709
0.12413
0.03531
0.05917
0.02648
0.07813
0.02565
0.07490
0.07327
0.01774
0.02189
0.01637
0.01640
0.10087
-0.05427
0.06304
0.02558
0.07680
0.02591
0.07250
0.07233
0.02174
0.01993
0.01697
0.01894
0.07108
0.07095
0.02137
0.02013
0.01673
0.01831
0.07217
0.07159
0.02103
0.01982
0.01640
0.01853
0.07114
0.07141
0.02074
0.02085
0.01766
0.01754
0.07251
0.07250
0.01949
0.02077
0.01764
0.01657
0.07229
0.07229
0.02020
0.02032
0.01718
0.01709
0.07222
0.07218
0.02012
0.02068
0.01752
0.01678
0.07182
0.07187
0.02055
0.02041
0.01721
0.01737
0.07159
0.07141
0.02091
0.02045
0.01736
0.01770
0.07190
0.07193
0.02052
0.02035
0.01714
0.01736
0.07217
0.07211
0.02019
0.02067
0.01744
0.01690
0.07226
0.07239
0.01981
0.02073
0.01764
0.01676
0.07110
0.07084
0.02054
0.02049
0.01687
0.01789
0.07180
0.07189
0.01987
0.02098
0.01771
0.01687
0.07229
0.07258
0.02034
0.01938
0.01647
0.01710
0.07175
0.07190
0.02021
0.02067
0.01760
0.01706
0.07072
0.06998
0.02021
0.02222
0.01852
0.01703
0.07236
0.07230
0.02038
0.02033
0.01703
0.01712
0.07134
0.07150
0.01993
0.02115
0.01805
0.01669
0.07200
0.07209
0.02007
0.02077
0.01767
0.01698
0.07194
0.07206
0.01954
0.02116
0.01803
0.01625
0.07160
0.07174
0.02040
0.02090
0.01771
0.01725
0.07179
0.07098
0.02160
0.01933
0.01582
0.01902
0.07278
0.07269
0.01944
0.02025
0.01683
0.01621
0.07345
0.07522
0.02190
0.01726
0.01580
0.01657
0.07121
0.07101
0.02016
0.02181
0.01927
0.01699
0.07220
0.07224
0.02051
0.02032
0.01706
0.01730
0.07253
0.07245
0.02106
0.01925
0.01585
0.01804
0.07271
0.07306
0.02074
0.01883
0.01569
0.01745
0.07227
0.07226
0.02038
0.02025
0.01711
0.01723
0.07195
0.07196
0.02055
0.02035
0.01715
0.01737
0.07153
0.07133
0.02083
0.02069
0.01754
0.01765
0.07184
0.07188
0.02051
0.02044
0.01725
0.01735
0.07217
0.07214
0.02012
0.02076
0.01756
0.01681
0.07062
0.07056
0.02059
0.02152
0.01822
0.01737
0.07249
0.07256
0.01963
0.02080
0.01765
0.01665
0.08425
0.08503
0.01742
0.01846
0.01413
0.01165
0.12660
-0.05729
0.08806
0.02617
0.07316
0.02630
0.07429
0.07241
0.01723
0.02267
0.01735
0.01586
0.09391
-0.21073
0.04678
0.02665
0.08425
0.02612
0.07003
0.07042
0.02187
0.02114
0.01807
0.01867
0.07319
0.07273
0.02041
0.01921
0.01583
0.01801
0.07092
0.07118
0.02216
0.02044
0.01716
0.01825
0.07242
0.07208
0.02036
0.02004
0.01700
0.01734
0.07136
0.07128
0.02080
0.02050
0.01772
0.01749
0.07258
0.07260
0.02021
0.02031
0.01704
0.01689
0.07172
0.07153
0.02116
0.02005
0.01694
0.01805
0.07190
0.07179
0.02129
0.01975
0.01673
0.01809
0.07028
0.07222
-0.00444
-0.00634
0.06981
-0.00763
-0.00669
0.07211
-0.00401
-0.00635
0.06957
-0.00712
-0.00619
-0.00712
-0.00475
0.07157
0.07110
-0.00541
-0.00497
0.07033
-0.00677
-0.00555
0.07165
-0.00529
-0.00614
0.07055
-0.00592
-0.00516
-0.00664
-0.00591
0.06956
0.07213
-0.00488
-0.00699
0.07148
-0.00567
-0.00696
0.07003
0.07091
-0.00616
-0.00667
-0.00666
-0.00505
-0.00545
-0.00513
0.07071
0.07116
-0.00560
-0.00600
0.07094
0.07079
-0.00626
-0.00609
0.07097
-0.00539
-0.00536
-0.00626
-0.00645
-0.00579
-0.00550
0.07118
0.07065
-0.00644
-0.00584
0.07141
-0.00518
-0.00533
0.07157
-0.00524
-0.00588
0.07052
-0.00603
-0.00531
-0.00653
-0.00562
0.07108
0.07054
-0.00665
-0.00574
0.07139
-0.00567
-0.00558
0.07147
-0.00568
-0.00596
0.07005
-0.00627
-0.00580
-0.00702
-0.00515
0.06780
0.09080
-0.00111
-0.01460
0.06258
-0.00511
-0.00318
0.06244
-0.00448
-0.00313
0.09453
-0.00581
-0.02746
-0.02420
-0.01913
0.09591
0.06586
-0.02446
-0.00655
0.10595
0.05969
-0.03036
-0.00255
-0.03435
-0.03820
0.05920
-0.00416
-0.00139
-0.00358
-0.00598
0.07108
0.07098
-0.00589
-0.00572
0.07112
-0.00565
-0.00575
0.07104
-0.00581
-0.00571
0.07106
-0.00578
-0.00572
-0.00575
-0.00581
0.07105
0.07097
-0.00579
-0.00585
0.07099
0.07100
-0.00579
-0.00591
-0.00578
-0.00573
0.07122
-0.00561
-0.00588
-0.00557
-0.00582
0.07042
0.07146
-0.00519
-0.00596
0.07132
-0.00589
-0.00643
0.07068
-0.00616
-0.00551
0.07092
-0.00554
-0.00522
-0.00605
-0.00622
0.06999
0.07156
-0.00571
-0.00676
0.07211
-0.00478
-0.00634
0.07021
-0.00648
-0.00494
0.07108
-0.00534
-0.00494
-0.00597
-0.00663
0.05753
0.05598
0.07694
0.07853
0.05645
0.05742
0.07824
0.07729
-0.01657
-0.01811
0.05076
-0.01622
-0.01765
0.04927
-0.01769
0.04985
-0.01745
0.05081
0.05359
0.05723
0.07736
0.07433
0.05726
0.05401
0.07492
0.07873
-0.01395
-0.01494
0.04711
-0.01466
-0.01569
0.05112
-0.01566
0.05024
-0.01664
0.04752
0.05277
0.04552
0.07203
0.08229
0.05779
0.06342
0.07592
0.08266
-0.01281
-0.01225
0.04953
0.01054
-0.01462
0.02246
-0.01182
0.04889
-0.02975
0.01746
0.04739
0.05132
0.08061
0.07474
0.07276
0.05321
0.06036
0.07860
0.00360
-0.01736
0.02095
-0.01747
-0.01347
0.05012
-0.03407
0.02106
-0.01494
0.05026
0.05547
0.05752
0.07859
0.07669
0.05722
0.05633
0.07667
0.07782
-0.01555
-0.01698
0.04851
-0.01577
-0.01786
0.04970
-0.01668
0.05079
-0.01694
0.05034
0.05485
0.05676
0.07786
0.07615
0.05687
0.05502
0.07552
0.07778
-0.01406
-0.01552
0.04779
-0.01536
0.05035
-0.01414
-0.01554
0.05003
-0.01553
0.04869
0.05663
0.05597
0.07673
0.07761
0.05599
0.05646
0.07738
0.07703
-0.01448
-0.01587
0.04994
-0.01465
-0.01606
0.04940
-0.01587
0.04917
-0.01603
0.04981
0.05610
0.05665
0.07763
0.07691
0.05643
0.05608
0.07710
0.07733
-0.01473
-0.01618
0.04949
-0.01459
-0.01605
0.04994
-0.01608
0.04979
-0.01592
0.04930
0.05529
0.05631
0.07720
0.07646
0.05625
0.05549
0.07630
0.07740
-0.01371
-0.01509
0.04845
-0.01518
0.04940
-0.01405
-0.01540
0.04975
-0.01552
0.04899
0.05620
0.05566
0.07635
0.07701
0.05591
0.05610
0.07720
0.07700
-0.01479
-0.01589
0.04987
-0.01430
-0.01555
0.04920
-0.01643
0.04907
-0.01583
0.04940
0.05448
0.05651
0.07843
0.07579
0.05738
0.05524
0.07500
0.07583
-0.01416
-0.01641
0.04777
-0.01435
0.05190
-0.01353
-0.01567
0.04911
-0.01413
0.04870
0.05644
0.05682
0.07779
0.07722
0.05663
0.05629
0.07730
0.07753
-0.01513
-0.01672
0.04986
-0.01636
0.04999
-0.01499
-0.01655
0.05008
-0.01625
0.04954
0.05606
0.05578
0.07668
0.07710
0.05556
0.05625
0.07722
0.07666
-0.01390
-0.01533
0.04933
-0.01408
-0.01553
0.04922
-0.01530
0.04879
-0.01546
0.04961
0.05694
0.05680
0.07719
0.07747
0.05567
0.05724
0.07792
0.07675
-0.01556
-0.01689
0.05046
-0.01612
-0.01738
0.05076
-0.01667
0.04884
-0.01795
0.04955
0.05457
0.05581
0.07728
0.07600
0.05745
0.05460
0.07450
0.07696
-0.01395
-0.01551
0.04801
-0.01517
0.05078
-0.01257
-0.01448
0.04864
-0.01380
0.04844
0.05651
0.05646
0.07727
0.07734
0.05628
0.05644
0.07743
0.07730
-0.01480
-0.01625
0.04992
-0.01613
0.04951
-0.01483
-0.01629
0.04988
-0.01615
0.04972
0.05697
0.05676
0.07750
0.07783
0.05644
0.05680
0.07774
0.07763
-0.01581
-0.01709
0.05035
-0.01722
0.04956
-0.01605
-0.01727
0.05028
-0.01752
0.05008
0.05665
0.05617
0.07701
0.07760
0.05618
0.05646
0.07739
0.07717
-0.01466
-0.01608
0.04997
-0.01601
0.04943
-0.01473
-0.01616
0.04955
-0.01610
0.04980
0.05603
0.05659
0.07757
0.07684
0.05641
0.05602
0.07704
0.07732
-0.01461
-0.01602
0.04943
-0.01445
-0.01587
0.04990
-0.01598
0.04977
-0.01582
0.04923
0.05522
0.05663
0.07762
0.07641
0.05664
0.05530
0.07598
0.07770
-0.01384
-0.01535
0.04829
-0.01410
-0.01552
0.04998
-0.01515
0.04994
-0.01548
0.04887
0.04978
0.04812
0.07492
0.07969
0.05510
0.07058
0.07672
0.06726
-0.01639
-0.01266
0.04884
-0.01433
0.05099
0.00876
-0.01451
0.02469
-0.03718
0.01778
0.04752
0.04983
0.07973
0.07447
0.06689
0.05297
0.06032
0.07353
0.00541
-0.01621
0.02086
-0.01624
-0.01247
0.04869
-0.02816
0.02013
-0.01330
0.04992
0.05477
0.05803
0.07843
0.07583
0.05759
0.05555
0.07601
0.07859
-0.01489
-0.01611
0.04803
-0.01621
0.05080
-0.01575
-0.01772
0.05060
-0.01705
0.04954
-0.15750
0.00207
0.29589
-0.06478
-0.10802
-0.02640
0.06905
-0.10344
0.08439
-0.22949
-0.03191
0.15525
-0.08560
0.20991
0.05517
0.05786
0.07806
0.07492
0.05618
0.05558
0.07685
0.07735
-0.01308
-0.01417
0.04886
-0.01510
0.04930
-0.01428
-0.01554
0.05060
-0.01594
0.04905
0.05622
0.05598
0.07549
0.07572
0.05512
0.05633
0.07786
0.07635
-0.01318
-0.01393
0.04998
-0.01539
0.04818
-0.01357
-0.01428
0.04929
-0.01556
0.04943
0.05625
0.05618
0.07712
0.07720
0.05619
0.05626
0.07719
0.07713
-0.01457
-0.01596
0.04956
-0.01598
0.04950
-0.01457
-0.01596
0.04950
-0.01598
0.04959
0.05667
0.05617
0.07720
0.07765
0.05637
0.05691
0.07775
0.07712
-0.01502
-0.01630
0.04994
-0.01653
0.04981
-0.01495
-0.01624
0.04937
-0.01643
0.05029
0.05675
0.05626
0.07725
0.07769
0.05647
0.05703
0.07792
0.07728
-0.01514
-0.01639
0.05006
-0.01669
0.04985
-0.01510
-0.01635
0.04950
-0.01665
0.05036
0.05569
0.05596
0.07702
0.07673
0.05613
0.05555
0.07641
0.07702
-0.01408
-0.01561
0.04903
-0.01538
0.04969
-0.01378
-0.01525
0.04931
-0.01513
0.04903
-0.01929
-0.01589
-0.01874
-0.01802
0.08537
0.08692
-0.01570
-0.01726
0.08214
-0.01800
-0.01792
0.08988
-0.01617
-0.01841
0.08485
-0.01856
-0.01678
-0.01839
-0.01633
0.08641
0.08555
-0.01675
-0.01705
0.08480
-0.01729
-0.01746
0.08598
-0.01732
-0.01659
0.08504
-0.01709
-0.01645
-0.01810
-0.01816
0.08346
0.08725
-0.01678
-0.01815
0.08613
-0.01680
-0.01739
-0.01664
-0.01794
0.08441
0.08541
-0.01777
-0.01689
-0.01715
-0.01747
0.08570
0.08547
-0.01664
-0.01793
-0.01683
-0.01754
0.08517
0.08556
-0.01826
-0.01628
0.08509
-0.01655
-0.01810
-0.01667
-0.01730
0.08567
0.08519
-0.01823
-0.01666
0.08607
-0.01740
-0.01726
0.08593
-0.01708
-0.01675
0.08499
-0.01747
-0.01832
-0.01791
-0.01660
0.08612
0.08487
-0.01867
-0.01710
0.08631
-0.01716
-0.01747
0.08881
-0.01602
-0.01790
0.08411
-0.01456
-0.01386
0.00454
-0.05794
0.08342
0.06876
-0.01493
-0.01604
0.08335
-0.01545
-0.01479
0.08456
0.02123
-0.06673
0.02683
0.02458
-0.08740
-0.01620
-0.01587
0.01910
0.08684
0.02595
-0.09318
-0.01447
-0.01478
0.03147
0.08323
-0.01698
-0.01459
0.08396
-0.01708
-0.01743
-0.01721
-0.01715
0.08569
0.08543
-0.01733
-0.01725
0.08581
-0.01728
-0.01718
0.08569
-0.01727
-0.01716
0.08553
-0.01724
-0.01720
-0.01708
-0.01739
0.08549
0.08560
-0.01717
-0.01720
-0.01701
-0.01746
0.08544
0.08562
-0.01734
-0.01742
0.08601
-0.01762
-0.01649
-0.01785
-0.01692
0.08469
0.08566
-0.01683
-0.01782
0.08594
-0.01738
-0.01693
0.08557
-0.01768
-0.01655
0.08525
-0.01628
-0.01732
-0.01670
-0.01806
0.08420
0.08617
-0.01808
-0.01730
0.08669
-0.01721
-0.01650
0.08473
-0.01799
-0.01633
0.08547
0.04872
0.04931
0.04614
0.04957
0.04803
0.04714
0.04666
0.05073
0.04699
0.11352
-0.03481
-0.04748
0.04954
0.04793
0.04809
0.04770
0.04875
0.04865
0.04855
0.04820
0.04827
0.04789
0.04862
0.04860
0.04762
0.04909
0.04723
0.04819
0.04811
0.04874
0.04750
0.04814
0.04915
0.04840
0.04807
0.04868
0.04779
0.04998
0.04706
0.04873
0.04926
0.04684
0.04853
0.04832
0.04821
0.04781
0.04862
0.04877
0.10887
-0.02440
-0.04884
0.04890
0.04669
0.04918
0.04802
0.04882
0.04787
0.04907
0.04794
0.04814
-0.09595
-0.10172
-0.19316
-0.21587
-0.07144
0.07560
-0.18243
-0.26266
-0.15272
0.03339
0.37100
-0.12292
-0.16075
-0.23102
-0.02067
0.05364
-0.17355
-0.28962
-0.03192
0.32911
-0.06832
-0.21704
-0.06244
-0.09191
-0.20357
0.01529
0.10000
