# vtk DataFile Version 3.0
Point representing Sub_cellular elem model
ASCII

DATASET UNSTRUCTURED_GRID
POINTS 769 float
0.01376 1.71156 0.51938 
0.00707 1.72495 -1.63935 
1.75227 1.06037 -0.57289 
1.75429 -1.09241 -0.57483 
0.00952 -1.75681 -1.64478 
0.01842 -1.74765 0.51143 
1.09586 -0.01631 1.17463 
-1.05127 -0.01804 1.20552 
1.08338 -0.01416 -2.31197 
-1.06955 -0.01522 -2.30606 
-1.72436 1.05487 -0.55537 
-1.72423 -1.09130 -0.56158 
0.00972 2.02907 -0.55976 
1.03551 1.63724 0.06739 
0.64615 1.00150 1.10603 
-0.61376 0.99983 1.12470 
-1.00840 1.63299 0.08142 
1.03427 1.64461 -1.20179 
0.64067 1.01223 -2.22830 
-0.62789 1.01120 -2.22419 
-1.01603 1.64083 -1.19230 
2.06599 -0.01575 -0.57652 
1.67296 0.61577 0.45028 
1.66984 0.62024 -1.59899 
1.03693 -1.67590 -1.20576 
1.03941 -1.67251 0.06407 
1.67453 -0.65044 0.44966 
1.67051 -0.64946 -1.60017 
0.01363 -2.06491 -0.56691 
0.64187 -1.04116 -2.23071 
-0.62686 -1.04173 -2.22756 
-1.01451 -1.67587 -1.19946 
0.64795 -1.02986 1.10622 
-0.61046 -1.03942 1.10751 
-1.00562 -1.67062 0.07104 
0.00848 0.60036 1.94786 
-1.63440 0.61241 0.47361 
-1.63370 -0.64819 0.46667 
0.00608 -0.01434 -2.61987 
-1.65108 0.61746 -1.58648 
-1.65099 -0.65060 -1.58942 
-2.03463 -0.01776 -0.55849 
0.01170 1.94348 0.01277 
0.53430 1.74364 0.33258 
0.33696 1.41970 0.86098 
-0.30674 1.41949 0.86811 
-0.50764 1.74200 0.34083 
0.00817 1.95223 -1.13273 
0.53075 1.75527 -1.45988 
0.33000 1.43319 -1.98398 
-0.31692 1.43241 -1.98162 
-0.51540 1.75340 -1.45536 
1.45768 1.39971 -0.24699 
1.45722 1.40260 -0.89382 
1.98387 0.55600 -0.57530 
1.78314 0.87743 -0.05086 
1.78193 0.88045 -1.09659 
1.98491 -0.58763 -0.57621 
1.45960 -1.43411 -0.89676 
1.46080 -1.43341 -0.24960 
1.78530 -0.91102 -0.05214 
1.78315 -0.91081 -1.09826 
0.53346 -1.78671 -1.46477 
0.01135 -1.98603 -1.13925 
0.33190 -1.46325 -1.98790 
-0.31518 -1.46351 -1.98625 
-0.51316 -1.78689 -1.46183 
0.53867 -1.77968 0.32752 
0.01606 -1.98033 0.00536 
0.34206 -1.45364 0.85533 
-0.30075 -1.45477 0.85736 
-0.50338 -1.77890 0.33084 
0.91501 0.50898 1.20808 
1.43370 0.30546 0.87191 
1.43391 -0.34024 0.87171 
0.91213 -0.53838 1.20952 
0.59701 -0.00753 1.44205 
-0.87776 0.50357 1.23847 
-0.87961 -0.54202 1.22380 
-0.54865 -0.02406 1.47961 
-1.39230 0.30353 0.89915 
-1.39221 -0.33827 0.89319 
0.90151 0.50952 -2.34083 
1.42635 0.30948 -2.01966 
1.42668 -0.33804 -2.02028 
0.90206 -0.53794 -2.34193 
0.57769 -0.01416 -2.54026 
-0.88847 0.50848 -2.33561 
-0.88804 -0.53875 -2.33738 
-0.56515 -0.01470 -2.53741 
-1.41084 0.30777 -2.01066 
-1.41069 -0.33934 -2.01196 
-1.42952 1.39392 -0.23022 
-1.43449 1.39747 -0.87970 
-1.74934 0.87232 -0.03070 
-1.75862 0.87617 -1.08096 
-1.95364 0.55172 -0.55666 
-1.43387 -1.43351 -0.88681 
-1.42844 -1.43130 -0.23884 
-1.74897 -0.90899 -0.03721 
-1.75869 -0.91110 -1.08560 
-1.95380 -0.58755 -0.56013 
0.56564 1.92718 -0.25750 
-0.54334 1.92447 -0.25057 
0.56455 1.93173 -0.86932 
-0.54612 1.92910 -0.86359 
0.91054 1.36875 0.64057 
1.05937 1.74310 -0.56696 
1.40479 1.18472 0.32884 
0.01480 1.02905 1.22053 
1.21777 0.87941 0.82377 
0.31476 0.53188 1.44246 
-0.87944 1.36654 0.65756 
-0.29119 0.52643 1.46111 
-1.18138 0.87641 0.84891 
-1.03691 1.73826 -0.55541 
-1.37167 1.18015 0.34933 
0.90747 1.38019 -1.77377 
1.40319 1.19154 -1.47083 
0.00605 1.03635 -2.32788 
1.21331 0.88639 -1.96481 
0.31154 0.54232 -2.51847 
-0.89260 1.37794 -1.76678 
-0.29955 0.54198 -2.51680 
-1.19836 0.88435 -1.95642 
-1.38490 1.18800 -1.45925 
1.96462 0.28891 -0.02053 
1.96257 0.29085 -1.13138 
1.96540 -0.32212 -0.02088 
1.96293 -0.32094 -1.13190 
1.77653 -0.01721 0.47254 
1.77206 -0.01455 -1.62464 
1.06292 -1.77659 -0.57101 
1.40476 -1.22138 -1.47333 
0.56816 -1.96526 -0.87481 
0.90932 -1.40994 -1.77705 
1.40765 -1.21971 0.32721 
0.56990 -1.96271 -0.26289 
0.91369 -1.40334 0.63830 
1.21886 -0.91351 0.82321 
1.21432 -0.91526 -1.96667 
-0.54327 -1.96492 -0.87144 
-0.53982 -1.96178 -0.25940 
0.00726 -1.06583 -2.33076 
0.31214 -0.57095 -2.51981 
-0.89131 -1.41052 -1.77209 
-0.29898 -0.57124 -2.51838 
-1.19777 -0.91621 -1.95995 
-1.03490 -1.77539 -0.56407 
-1.38435 -1.22193 -1.46465 
0.02431 -1.06098 1.21303 
0.30735 -0.54289 1.45056 
-0.87582 -1.40354 0.64425 
-0.29819 -0.57735 1.43638 
-1.17999 -0.91307 0.83548 
-1.37002 -1.21719 0.33867 
-1.73516 -0.01750 0.49399 
-1.92763 0.28615 -0.00015 
-1.92756 -0.32200 -0.00249 
-1.75281 -0.01645 -1.61246 
-1.93822 0.28794 -1.11549 
-1.93833 -0.32235 -1.11712 
0.01274 1.84359 0.27709 
0.27322 1.74400 0.43668 
0.17500 1.58247 0.69997 
-0.14594 1.58232 0.70304 
-0.24625 1.74339 0.44097 
0.00757 1.85531 -1.39724 
0.26809 1.75693 -1.56023 
0.16797 1.59652 -1.82161 
-0.15449 1.59605 -1.82036 
-0.25353 1.75603 -1.55806 
1.62231 1.24020 -0.41056 
1.62203 1.24145 -0.73293 
1.88463 0.81950 -0.57419 
1.78460 0.97961 -0.31259 
1.78403 0.98128 -0.83402 
1.88617 -0.85129 -0.57560 
1.62425 -1.27320 -0.73536 
1.62489 -1.27303 -0.41286 
1.78675 -1.01242 -0.31424 
1.78563 -1.01242 -0.83586 
0.27070 -1.78856 -1.56545 
0.01036 -1.88809 -1.40326 
0.17019 -1.62740 -1.82631 
-0.15237 -1.62751 -1.82546 
-0.25112 -1.78868 -1.56402 
0.27776 -1.78016 0.43022 
0.01724 -1.88025 0.26946 
0.17988 -1.61778 0.69282 
-0.14081 -1.61781 0.69394 
-0.24167 -1.77982 0.43191 
1.02220 0.24474 1.20532 
1.27611 0.14313 1.03800 
1.27597 -0.17730 1.03786 
1.02109 -0.27625 1.20540 
0.85788 -0.01404 1.31841 
-0.97979 0.24055 1.23829 
-0.98121 -0.27753 1.23011 
-0.81226 -0.01970 1.35203 
-1.23313 0.14157 1.06754 
-1.23351 -0.17624 1.06360 
1.00310 0.24693 -2.34327 
1.26472 0.14719 -2.18312 
1.26489 -0.17558 -2.18343 
1.00337 -0.27525 -2.34380 
0.84163 -0.01414 -2.44263 
-0.98974 0.24588 -2.33767 
-0.98954 -0.27618 -2.33857 
-0.82858 -0.01494 -2.43828 
-1.25022 0.14584 -2.17574 
-1.25012 -0.17679 -2.17634 
-1.59403 1.23442 -0.39328 
-1.59671 1.23603 -0.71689 
-1.75372 0.97407 -0.29382 
-1.75834 0.97628 -0.81725 
-1.85547 0.81439 -0.55588 
-1.59643 -1.27232 -0.72365 
-1.59354 -1.27137 -0.40068 
-1.75351 -1.01080 -0.30013 
-1.75838 -1.01202 -0.82270 
-1.85555 -0.85054 -0.56086 
0.01068 2.00625 -0.26896 
0.00888 2.01092 -0.85070 
0.29414 2.00301 -0.41286 
-0.27354 2.00156 -0.40946 
0.29344 2.00537 -0.71017 
-0.27468 2.00395 -0.70707 
0.79106 1.70792 0.20830 
1.26010 1.53354 -0.08600 
0.81454 1.80421 -0.09478 
0.99098 1.51824 0.36431 
1.05437 1.71500 -0.24512 
1.23094 1.42911 0.21341 
0.49668 1.22523 0.99701 
0.78829 0.76421 1.17456 
0.79357 1.19561 0.88961 
0.33857 1.02445 1.18719 
0.94301 0.95965 0.97819 
0.48206 0.78172 1.28858 
-0.46540 1.22460 1.00945 
-0.75392 0.76040 1.20009 
-0.30794 1.02356 1.19788 
-0.76127 1.19412 0.90774 
-0.45161 0.77877 1.30722 
-0.90846 0.95717 1.00170 
-0.76435 1.70499 0.21984 
-1.23241 1.52826 -0.07026 
-0.79005 1.80054 -0.08430 
-0.96170 1.51495 0.37984 
-1.02959 1.71019 -0.23243 
-1.20088 1.42455 0.23090 
0.78885 1.71761 -1.33925 
1.25939 1.53851 -1.05176 
0.81330 1.81050 -1.03589 
1.05378 1.71892 -0.88896 
0.98895 1.52820 -1.49868 
1.22966 1.43661 -1.35160 
0.48925 1.23652 -2.12109 
0.77952 0.76734 -2.30229 
0.78922 1.20728 -2.01942 
0.32791 1.03127 -2.30291 
0.93771 0.96739 -2.11213 
0.47631 0.79133 -2.39550 
-0.47640 1.23556 -2.11777 
-0.76668 0.76629 -2.29756 
-0.31564 1.03076 -2.30087 
-0.77558 1.20569 -2.01387 
-0.46406 0.79071 -2.39272 
-0.92405 0.96584 -2.10590 
-0.77228 1.71476 -1.33225 
-1.23907 1.53394 -1.03986 
-0.79501 1.80708 -1.02803 
-1.03352 1.71448 -0.87844 
-0.97253 1.52519 -1.49035 
-1.21144 1.43284 -1.34091 
2.04516 0.27471 -0.57610 
2.04569 -0.30624 -0.57655 
2.04053 0.13230 -0.29208 
2.03937 0.13321 -0.86057 
2.04086 -0.16466 -0.29228 
2.03959 -0.16393 -0.86081 
1.74564 0.75492 0.20610 
1.56773 0.46440 0.67436 
1.55440 0.91116 0.40748 
1.46351 0.76272 0.64719 
1.84100 0.45276 0.22858 
1.74982 0.30414 0.46786 
1.74362 0.75890 -1.35429 
1.56294 0.46885 -1.82308 
1.55213 0.91684 -1.55308 
1.45981 0.76856 -1.79289 
1.83832 0.45588 -1.37927 
1.74584 0.30754 -1.61890 
1.26193 -1.56987 -1.05522 
0.79157 -1.74894 -1.34370 
1.05691 -1.75126 -0.89308 
1.23176 -1.46706 -1.35482 
0.81649 -1.84285 -1.04061 
0.99118 -1.55862 -1.50234 
1.26366 -1.56809 -0.08893 
0.79521 -1.74368 0.20430 
1.05821 -1.74954 -0.24889 
1.23438 -1.46423 0.21102 
0.81871 -1.83960 -0.09914 
0.99464 -1.55362 0.36149 
1.74762 -0.78916 0.20518 
1.56867 -0.49925 0.67396 
1.84224 -0.48678 0.22810 
1.75063 -0.33862 0.46760 
1.55663 -0.94601 0.40642 
1.46503 -0.79762 0.64648 
1.74453 -0.78863 -1.35573 
1.56343 -0.49768 -1.82398 
1.83883 -0.48546 -1.38011 
1.74616 -0.33666 -1.61948 
1.55321 -0.94628 -1.55489 
1.46066 -0.79755 -1.79441 
0.01245 -2.04579 -0.85761 
0.01485 -2.04280 -0.27625 
0.29730 -2.04012 -0.71646 
0.29832 -2.03869 -0.41921 
-0.27122 -2.03985 -0.71475 
-0.26977 -2.03827 -0.41747 
0.49081 -1.26593 -2.12424 
0.78039 -0.79595 -2.30402 
0.79074 -1.23653 -2.02228 
0.93884 -0.99624 -2.11428 
0.32913 -1.06041 -2.30555 
0.47721 -0.82006 -2.39741 
-0.47502 -1.26634 -2.12182 
-0.76597 -0.79665 -2.30016 
-0.31449 -1.06071 -2.30400 
-0.77439 -1.23717 -2.01820 
-0.46325 -0.82050 -2.39516 
-0.92320 -0.99702 -2.10942 
-0.77034 -1.74906 -1.33914 
-1.23801 -1.56958 -1.04710 
-0.79283 -1.84260 -1.03569 
-0.97114 -1.55898 -1.49662 
-1.03179 -1.75068 -0.88638 
-1.21047 -1.46731 -1.34728 
0.50105 -1.25662 0.99399 
0.78706 -0.79203 1.17610 
0.79609 -1.22809 0.88816 
0.94384 -0.99150 0.97800 
0.34425 -1.05197 1.18513 
0.48182 -0.80316 1.29189 
-0.45943 -1.26126 0.99593 
-0.75395 -0.80051 1.18210 
-0.30070 -1.06130 1.18408 
-0.75747 -1.23160 0.89259 
-0.45073 -0.82293 1.28730 
-0.90657 -0.99510 0.98559 
-0.76072 -1.74235 0.20935 
-1.23054 -1.56589 -0.07995 
-0.78686 -1.83815 -0.09393 
-1.02722 -1.74782 -0.24185 
-0.95848 -1.55223 0.36816 
-1.19864 -1.46199 0.22002 
0.01852 -0.54294 1.70175 
-0.20152 -0.55047 1.96714 
0.45511 0.02614 1.66180 
0.43570 -0.45949 2.31158 
-0.43352 -0.25857 1.71016 
-0.53712 -0.15079 1.95522 
-1.52755 0.46193 0.69955 
-1.70921 0.75059 0.22776 
-1.42570 0.75938 0.67195 
-1.51834 0.90694 0.43002 
-1.70945 0.30218 0.49072 
[...]
CELL_DATA 2299
SCALARS Strain double 
LOOKUP_TABLE default 
-0.08391
-0.08948
-0.08908
-0.08508
-0.09219
-0.08707
-0.08826
-0.08713
-0.08784
-0.08781
-0.08726
-0.08857
-0.08750
-0.08881
-0.08801
-0.08756
-0.08851
-0.08711
-0.08860
-0.08763
-0.08763
-0.08733
-0.08765
-0.08732
-0.08793
-0.09130
-0.08393
-0.08569
-0.08760
-0.09074
-0.09372
-0.08120
-0.07836
-0.09622
-0.07688
-0.10266
-0.10389
-0.06925
-0.07523
-0.07048
-0.08721
-0.08761
-0.08758
-0.08724
-0.08766
-0.08749
-0.08738
-0.08748
-0.08734
-0.08749
-0.08776
-0.08955
-0.08593
-0.08526
-0.09063
-0.08852
-0.08839
-0.08658
-0.08692
-0.08948
-0.03153
-0.03218
0.06634
0.06855
0.06902
0.06663
-0.03428
-0.03360
0.06555
0.07226
0.07101
0.06468
-0.03615
-0.05389
0.08220
0.05886
0.08209
0.09385
-0.02744
-0.04547
0.04697
0.08388
0.09348
0.06964
-0.03830
-0.03685
0.06664
0.07669
0.07538
0.06469
-0.03515
-0.03520
0.07001
0.06948
0.06938
0.07010
-0.03360
-0.03361
0.06938
0.06938
0.06935
0.06947
-0.03424
-0.03418
0.06947
0.07006
0.06993
0.06945
-0.03508
-0.03540
0.06798
0.07192
0.07118
0.06826
-0.03317
-0.03320
0.06797
0.06853
0.06861
0.06801
-0.03621
-0.03662
0.06628
0.07193
0.07047
0.06721
-0.03463
-0.03453
0.07035
0.06917
0.06901
0.07047
-0.03472
-0.03454
0.06990
0.06965
0.06934
0.06970
-0.03431
-0.03568
0.07186
0.06546
0.06689
0.07378
-0.03571
-0.03562
0.07069
0.06729
0.06623
0.07217
-0.03436
-0.03435
0.06888
0.07039
0.07023
0.06912
-0.03278
-0.03219
0.06784
0.06837
0.06874
0.06737
-0.03389
-0.03381
0.06954
0.06948
0.06953
0.06959
-0.03382
-0.03383
0.06954
0.06963
0.06966
0.06952
-0.03498
-0.03509
0.06944
0.06991
0.07024
0.06941
-0.02868
-0.05626
0.09505
0.07822
0.04434
0.11834
-0.03507
-0.04216
0.06187
0.07447
0.07432
0.07333
-0.03631
-0.03574
0.06623
0.07236
0.07335
0.06542
0.02218
0.25701
0.09112
0.12310
0.07147
-0.03143
-0.03128
0.07321
0.06097
0.06120
0.07411
-0.03024
-0.03082
0.06776
0.06467
0.06393
0.06863
-0.03411
-0.03407
0.06973
0.06979
0.06976
0.06975
-0.03324
-0.03288
0.06909
0.06863
0.06883
0.06897
-0.03391
-0.03381
0.06946
0.06922
0.06922
0.06952
-0.03719
-0.03693
0.07185
0.06932
0.06923
0.07096
-0.06187
-0.04171
0.07547
0.07874
0.03306
0.02994
-0.06685
-0.04555
0.07521
0.08453
0.03737
0.02921
-0.06890
-0.05026
0.08554
0.07573
0.03327
0.04008
-0.06319
-0.04274
0.07316
0.08358
0.03474
0.02687
-0.07066
-0.04982
0.07860
0.08484
0.03912
0.03283
-0.06472
-0.04358
0.07983
0.07829
0.03236
0.03363
-0.06647
-0.04591
0.08019
0.07987
0.03446
0.03466
-0.06510
-0.04443
0.07971
0.07947
0.03378
0.03404
-0.06585
-0.04513
0.07952
0.08050
0.03465
0.03390
-0.06605
-0.04563
0.07868
0.08082
0.03557
0.03338
-0.06507
-0.04429
0.07942
0.07744
0.03165
0.03383
-0.06673
-0.04607
0.07934
0.08037
0.03467
0.03373
-0.06517
-0.04418
0.07928
0.07844
0.03254
0.03319
-0.06715
-0.04673
0.07804
0.08006
0.03510
0.03314
-0.06617
-0.04552
0.08049
0.07875
0.03345
0.03504
-0.06525
-0.04424
0.07992
0.07826
0.03229
0.03378
-0.06655
-0.04574
0.07986
0.08022
0.03436
0.03414
-0.06507
-0.04456
0.07998
0.07757
0.03209
0.03451
-0.06696
-0.04648
0.08054
0.07802
0.03314
0.03535
-0.06576
-0.04516
0.07867
0.08041
0.03495
0.03343
-0.06575
-0.04521
0.07942
0.08009
0.03457
0.03406
-0.06512
-0.04410
0.07902
0.07977
0.03379
0.03299
-0.06559
-0.04482
0.08000
0.07977
0.03411
0.03432
-0.06531
-0.04464
0.07972
0.07984
0.03420
0.03399
-0.06616
-0.04567
0.07999
0.07996
0.03458
0.03440
-0.06908
-0.04760
0.07771
0.08510
0.03780
0.03203
-0.06231
-0.04233
0.07777
0.07683
0.03146
0.03215
-0.06297
-0.04167
0.08614
0.07160
0.02724
0.03896
-0.06762
-0.05027
0.07418
0.08602
0.04122
0.03199
-0.06856
-0.04743
0.07648
0.08484
0.03779
0.03032
-0.05322
-0.04740
0.08813
0.05358
0.02520
0.05136
-0.06821
-0.04783
0.08241
0.07785
0.03243
0.03564
-0.06621
-0.04612
0.07785
0.08380
0.03566
0.03121
-0.05742
-0.05453
0.09307
0.06491
0.03767
0.05986
-0.04130
-0.28325
0.11003
0.13069
0.02534
0.02522
-0.06335
-0.04484
0.07695
0.07986
0.03117
0.03500
-0.05910
-0.03576
0.07475
0.07129
0.01949
0.02845
-0.02756
0.14367
0.13997
0.02597
0.02569
-0.06140
-0.04223
0.08177
0.07009
0.02708
0.03958
-0.05815
-0.04019
0.07369
0.07219
0.03148
0.03233
-0.06516
-0.04446
0.07965
0.07988
0.03406
0.03403
-0.06577
-0.04524
0.07962
0.08052
0.03481
0.03392
-0.06571
-0.04513
0.08049
0.07961
0.03385
0.03473
-0.06523
-0.04459
0.07969
0.07991
0.03412
0.03408
-0.06567
-0.04498
0.08001
0.08003
0.03444
0.03441
-0.06556
-0.04495
0.08013
0.07984
0.03421
0.03457
-0.06538
-0.04468
0.07998
0.07990
0.03423
0.03431
-0.06552
-0.04488
0.08008
0.07999
0.03433
0.03441
-0.06523
-0.04436
0.07976
0.07975
0.03393
0.03402
-0.06551
-0.04481
0.07993
0.07986
0.03424
0.03434
-0.06627
-0.04649
0.08427
0.07445
0.03051
0.03925
-0.06753
-0.04658
0.08317
0.07804
0.03250
0.03648
-0.06326
-0.04219
0.07341
0.08282
0.03606
0.02788
-0.06352
-0.04329
0.07795
0.07891
0.03309
0.03233
-0.06900
-0.04826
0.08270
0.07936
0.03429
0.03634
-0.06667
-0.04600
0.08095
0.07890
0.03347
0.03483
-0.06665
-0.04625
0.08163
0.07676
0.03169
0.03652
-0.06380
-0.04235
0.07621
0.07952
0.03309
0.03010
-0.06505
-0.04452
0.07872
0.07969
0.03375
0.03304
-0.06793
-0.04753
0.07989
0.08037
0.03560
0.03433
0.06860
0.06837
0.01981
0.02273
0.01881
0.01706
0.07057
0.07003
0.01662
0.02486
0.02090
0.01391
0.07200
0.07233
0.01849
0.02104
0.01826
0.01517
0.06956
0.07004
0.01951
0.02249
0.02007
0.01591
0.07653
0.07929
0.01509
0.01956
0.01982
0.00841
0.07272
0.07224
0.01807
0.02087
0.01741
0.01505
0.06695
0.06759
0.02033
0.02216
0.01967
0.01710
0.08073
0.07429
0.02667
0.01716
0.00792
0.02533
0.07977
0.07677
0.01710
0.01578
0.00970
0.01631
0.12144
-0.18538
0.09547
0.02551
0.06430
0.02524
0.08235
0.08052
0.01275
0.01833
0.01055
0.01425
0.11649
-0.05410
0.05943
0.02568
0.09322
0.02561
0.07250
0.07432
0.02453
0.01281
0.00940
0.02305
0.07662
0.07544
0.01788
0.01838
0.01453
0.01542
0.06515
0.06378
0.02633
0.02123
0.01644
0.02350
0.07184
0.07184
0.02102
0.02006
0.01684
0.01787
0.07268
0.07276
0.02006
0.01990
0.01679
0.01692
0.07191
0.07195
0.02041
0.02089
0.01768
0.01731
0.07181
0.07175
0.02026
0.02110
0.01790
0.01699
0.07209
0.07218
0.02039
0.02080
0.01765
0.01725
0.07282
0.07318
0.02012
0.01985
0.01676
0.01679
0.07237
0.07233
0.02050
0.02060
0.01737
0.01729
0.07189
0.07176
0.02106
0.02012
0.01684
0.01814
0.07088
0.07098
0.02215
0.01957
0.01660
0.01850
0.07082
0.07164
0.01869
0.02005
0.01721
0.01547
0.07114
0.07132
0.01947
0.02154
0.01846
0.01642
0.07144
0.07208
0.01841
0.02005
0.01720
0.01527
0.07076
0.07108
0.01995
0.02147
0.01844
0.01678
0.07069
0.07070
0.01970
0.01959
0.01566
0.01565
0.07304
0.07301
0.02014
0.01999
0.01662
0.01686
0.07275
0.07334
0.02032
0.01880
0.01606
0.01656
0.07238
0.07257
0.02039
0.01997
0.01695
0.01717
0.07141
0.07090
0.02116
0.01984
0.01639
0.01840
0.07210
0.07205
0.02057
0.02036
0.01708
0.01755
0.06716
0.06748
0.02139
0.02218
0.01918
0.01918
0.07006
0.07050
0.02297
0.01839
0.01588
0.01899
0.07971
0.08587
0.01745
0.01547
0.01815
0.00901
0.07717
0.07929
0.01393
0.02485
0.02047
0.00870
0.07178
0.07190
0.02096
0.02037
0.01716
0.01768
0.07159
0.07183
0.01900
0.02125
0.01858
0.01557
0.06947
0.06912
0.01886
0.02316
0.01922
0.01606
0.07206
0.07206
0.02065
0.02058
0.01747
0.01750
0.07216
0.07222
0.02045
0.02072
0.01752
0.01731
0.07215
0.07224
0.02023
0.02068
0.01746
0.01697
0.07221
0.07224
0.02053
0.02071
0.01752
0.01733
0.07200
0.07198
0.02063
0.02057
0.01742
0.01750
0.07327
0.07399
0.01974
0.01830
0.01536
0.01635
0.07183
0.07175
0.02090
0.02004
0.01691
0.01758
0.06668
0.08330
0.02084
0.02988
0.03180
0.00654
0.16606
0.22819
0.10812
0.02575
0.09163
0.02533
0.07705
0.07669
0.01724
0.01623
0.01112
0.01579
0.07990
-0.15745
0.04494
0.02516
0.06700
0.02503
0.07077
0.07007
0.01934
0.01778
0.01304
0.01913
0.06747
0.06731
0.02338
0.01902
0.01568
0.02025
0.06486
0.06584
0.02528
0.01949
0.01692
0.02131
0.07621
0.07534
0.01472
0.02072
0.01736
0.01213
0.07155
0.07176
0.01611
0.02278
0.02047
0.01259
0.07154
0.07167
0.02031
0.02080
0.01789
0.01716
0.07148
0.07158
0.01884
0.02198
0.01827
0.01586
0.07229
0.07276
0.01930
0.02053
0.01724
0.01602
0.06677
0.07054
-0.00713
-0.01041
0.07613
-0.00190
-0.00976
0.06561
-0.00803
-0.00099
0.07420
-0.00593
-0.01194
-0.00148
-0.00526
0.07127
0.07012
-0.00695
-0.00610
0.07109
-0.00531
-0.00527
0.07059
-0.00630
-0.00591
0.07177
-0.00522
-0.00606
-0.00478
-0.00628
0.07028
0.06990
-0.00738
-0.00680
0.07147
-0.00527
-0.00627
0.07105
0.06969
-0.00735
-0.00640
-0.00524
-0.00615
-0.00668
-0.00514
0.07151
0.06970
-0.00735
-0.00589
0.07074
0.07146
-0.00534
-0.00585
0.06986
-0.00718
-0.00638
-0.00620
-0.00499
-0.00521
-0.00664
0.07063
0.07133
-0.00537
-0.00587
0.07119
-0.00590
-0.00648
0.07090
-0.00581
-0.00551
0.07110
-0.00576
-0.00602
-0.00542
-0.00547
0.06931
0.07534
-0.00191
-0.00615
0.06818
-0.00897
-0.00838
0.06473
-0.01124
-0.00383
0.07621
-0.00045
-0.00971
-0.00180
-0.00838
0.06445
0.08477
-0.01725
-0.02346
0.06386
-0.00159
-0.00580
0.06458
-0.00679
-0.00282
0.09192
-0.01224
-0.01890
-0.01751
-0.02535
0.09476
0.06623
-0.02383
-0.00523
0.10056
0.05848
-0.03223
-0.00512
-0.03258
-0.03448
0.05524
-0.00992
-0.00028
-0.00662
-0.00748
0.07090
0.07121
-0.00580
-0.00587
0.07159
-0.00522
-0.00588
0.07091
-0.00592
-0.00528
0.07123
-0.00577
-0.00585
-0.00542
-0.00546
0.07131
0.07110
-0.00567
-0.00540
0.07118
0.07119
-0.00566
-0.00561
-0.00561
-0.00550
0.07115
-0.00577
-0.00575
-0.00558
-0.00551
0.07444
0.06641
-0.00888
-0.00224
0.06900
-0.00701
-0.00322
0.07341
-0.00489
-0.01055
0.07045
-0.00720
-0.00827
-0.00497
-0.00338
0.07236
0.06962
-0.00668
-0.00497
0.06857
-0.00754
-0.00401
0.07109
-0.00665
-0.00878
0.07110
-0.00636
-0.00737
-0.00459
-0.00532
0.05551
0.05272
0.07339
0.07611
0.05384
0.05557
0.07703
0.07507
-0.01289
-0.01363
0.04931
-0.01186
-0.01253
0.04647
-0.01482
0.04696
-0.01396
0.04842
0.05866
0.05142
0.07279
0.08088
0.05290
0.05725
0.07763
0.07357
-0.01468
-0.01647
0.05108
-0.01346
-0.01623
0.04307
-0.01566
0.04661
-0.01478
0.05124
0.05279
0.05765
0.08176
0.07755
0.05356
0.08643
0.08978
0.06042
-0.02717
-0.02092
0.05515
-0.00519
-0.02145
0.03828
-0.02317
0.05093
-0.05318
0.02413
0.05366
0.04362
0.07061
0.08105
0.06659
0.06013
0.07027
0.07818
0.00988
-0.01037
0.02911
-0.02275
-0.01563
0.04700
-0.03573
0.00917
-0.02217
0.05666
0.06189
0.05335
0.07519
0.08352
0.05270
0.06267
0.08257
0.07182
-0.01801
-0.02009
0.05428
-0.01754
-0.02134
0.04382
-0.01843
0.04726
-0.01729
0.05691
0.05645
0.05686
0.07770
0.07723
0.05682
0.05603
0.07701
0.07784
-0.01617
-0.01748
0.05003
-0.01765
0.04998
-0.01531
-0.01666
0.05024
-0.01675
0.04935
0.05607
0.05623
0.07710
0.07703
0.05619
0.05619
0.07709
0.07725
-0.01405
-0.01546
0.04937
-0.01417
-0.01555
0.04965
-0.01544
0.04943
-0.01558
0.04956
0.05677
0.05616
0.07709
0.07786
0.05633
0.05679
0.07761
0.07725
-0.01461
-0.01607
0.05002
-0.01487
-0.01634
0.04941
-0.01595
0.04963
-0.01620
0.05033
0.05820
0.05530
0.07591
0.07857
0.05463
0.05832
0.08017
0.07573
-0.01600
-0.01703
0.05232
-0.01785
0.04750
-0.01545
-0.01661
0.04878
-0.01711
0.05106
0.05496
0.05503
0.07616
0.07601
0.05449
0.05563
0.07685
0.07563
-0.01408
-0.01558
0.04835
-0.01347
-0.01492
0.04848
-0.01561
0.04785
-0.01496
0.04893
0.05792
0.05460
0.07468
0.07782
0.05303
0.05763
0.08032
0.07471
-0.01647
-0.01732
0.05260
-0.01917
0.04451
-0.01702
-0.01813
0.04869
-0.01867
0.04921
0.05581
0.05729
0.07806
0.07650
0.05708
0.05596
0.07699
0.07809
-0.01500
-0.01647
0.04925
-0.01630
0.05036
-0.01522
-0.01674
0.05074
-0.01646
0.04916
0.05631
0.05641
0.07751
0.07753
0.05673
0.05631
0.07694
0.07749
-0.01536
-0.01703
0.04921
-0.01497
-0.01652
0.04964
-0.01653
0.05037
-0.01623
0.04986
0.05369
0.05832
0.07834
0.07394
0.05945
0.05306
0.07480
0.08235
-0.01569
-0.01624
0.04778
-0.01452
-0.01514
0.05329
-0.01793
0.05161
-0.01850
0.04378
0.05468
0.05814
0.07820
0.07470
0.05771
0.05263
0.07463
0.08087
-0.01678
-0.01811
0.04873
-0.01809
0.04938
-0.01489
-0.01652
0.05268
-0.01618
0.04390
0.05720
0.05577
0.07638
0.07794
0.05586
0.05697
0.07804
0.07696
-0.01495
-0.01637
0.05069
-0.01629
0.04896
-0.01479
-0.01617
0.04929
-0.01617
0.05018
0.05562
0.05467
0.07603
0.07691
0.05414
0.05496
0.07558
0.07461
-0.01309
-0.01500
0.04862
-0.01382
0.04807
-0.01299
-0.01494
0.04764
-0.01370
0.04869
0.05629
0.05642
0.07734
0.07726
0.05629
0.05629
0.07717
0.07731
-0.01432
-0.01582
0.04954
-0.01562
0.04959
-0.01438
-0.01584
0.04979
-0.01572
0.04966
0.05641
0.05625
0.07722
0.07731
0.05637
0.05646
0.07742
0.07730
-0.01434
-0.01574
0.04980
-0.01436
-0.01573
0.04953
-0.01574
0.04969
-0.01578
0.04980
0.05686
0.05643
0.07735
0.07751
0.05595
0.05685
0.07816
0.07679
-0.01597
-0.01719
0.05063
-0.01521
-0.01650
0.04971
-0.01750
0.04920
-0.01667
0.04997
0.04495
0.06554
0.08709
0.06712
0.06870
0.08450
0.09105
0.08442
-0.02708
-0.01685
0.05244
-0.02628
0.05921
0.00826
-0.00636
0.04785
-0.06333
0.00037
0.05294
0.05192
0.07830
0.08006
0.06818
0.04872
0.05297
0.07416
-0.00408
-0.02307
0.02891
-0.02178
-0.01976
0.04960
-0.02533
0.03181
-0.01667
0.04964
0.05949
0.05239
0.07377
0.08140
0.05329
0.05930
0.07954
0.07365
-0.01615
-0.01789
0.05196
-0.01717
0.04707
-0.01644
-0.01870
0.04449
-0.01758
0.05306
0.30146
-0.05655
-0.12437
0.03723
0.14298
-0.06688
-0.15260
0.12939
-0.02207
-0.12045
-0.03513
0.12066
0.04784
0.06148
0.08096
0.06838
0.05924
0.04884
0.06949
0.08105
-0.01018
-0.01240
0.04103
-0.01146
0.05126
-0.01378
-0.01585
0.05429
-0.01482
0.04301
0.05195
0.05502
0.07425
0.07113
0.05503
0.05138
0.07278
0.07666
-0.01166
-0.01386
0.04515
-0.01307
0.04807
-0.01109
-0.01189
0.04890
-0.01320
0.04434
0.05659
0.05655
0.07746
0.07748
0.05651
0.05657
0.07752
0.07746
-0.01460
-0.01604
0.04995
-0.01596
0.04980
-0.01458
-0.01601
0.04988
-0.01595
0.04987
0.05581
0.05600
0.07704
0.07693
0.05560
0.05512
0.07587
0.07646
-0.01356
-0.01527
0.04899
-0.01456
0.04911
-0.01368
-0.01540
0.04929
-0.01466
0.04867
0.05626
0.05642
0.07730
0.07717
0.05610
0.05566
0.07659
0.07715
-0.01434
-0.01581
0.04960
-0.01562
0.04944
-0.01451
-0.01597
0.04993
-0.01580
0.04895
0.05614
0.05816
0.08000
0.07684
0.05817
0.05623
0.07718
0.07825
-0.01853
-0.02028
0.04945
-0.01961
0.05244
-0.01666
-0.01826
0.05078
-0.01788
0.04944
-0.01410
-0.01814
-0.01313
-0.02167
0.08145
0.08404
-0.01790
-0.02237
0.09016
-0.01991
-0.01243
0.08207
-0.01716
-0.02315
0.09153
-0.01644
-0.01856
-0.01577
-0.01789
0.08580
0.08381
-0.01781
-0.01668
0.08547
-0.01672
-0.01733
0.08540
-0.01761
-0.01763
0.08649
-0.01671
-0.01889
-0.01629
-0.01833
0.08556
0.08221
-0.01801
-0.01770
0.08627
-0.01711
-0.01906
-0.01632
-0.01798
0.08514
0.08457
-0.01716
-0.01910
-0.01639
-0.01752
0.08575
0.08433
-0.01848
-0.01698
-0.01789
-0.01733
0.08616
0.08609
-0.01626
-0.01785
0.08227
-0.01753
-0.01658
-0.01732
-0.01716
0.08485
0.08572
-0.01657
-0.01818
0.08553
-0.01713
-0.01695
0.08559
-0.01691
-0.01759
0.08570
-0.01987
-0.01423
-0.02126
-0.01767
0.08357
0.09316
-0.01412
-0.01950
0.08252
-0.01012
-0.01866
0.07939
-0.02153
-0.01991
0.08999
-0.01874
-0.02298
0.01995
-0.06352
0.09244
0.01124
-0.01997
-0.01919
0.08437
-0.01816
-0.02297
0.09407
0.01640
-0.06238
0.02881
0.01140
-0.08058
-0.02179
-0.01512
0.04038
0.08784
0.01983
-0.08686
-0.01577
-0.01660
0.02961
0.08211
-0.01795
-0.01247
0.07827
-0.01665
-0.01738
-0.01682
-0.01728
0.08538
0.08571
-0.01750
-0.01740
0.08644
-0.01731
-0.01676
0.08541
-0.01689
-0.01725
0.08574
-0.01710
-0.01714
-0.01732
-0.01670
0.08589
0.08551
-0.01694
-0.01713
-0.01701
-0.01705
0.08578
0.08563
-0.01682
-0.01720
0.08543
-0.01885
-0.01960
-0.01724
-0.01305
0.08968
0.07851
-0.01854
-0.01527
0.08411
-0.01603
-0.02181
0.08913
-0.01535
-0.01964
0.08492
-0.01882
-0.01817
-0.01790
-0.01666
0.08712
0.08499
-0.01848
-0.01478
0.08149
-0.01521
-0.02053
0.08538
-0.01687
-0.01894
0.08590
0.04553
0.04844
0.04918
0.04667
0.04571
0.05201
0.05037
0.04187
0.05281
0.09748
-0.01027
-0.03158
0.05604
0.04811
0.04059
0.04812
0.04904
0.04806
0.04834
0.04847
0.04872
0.04938
0.04802
0.04762
0.04701
0.04739
0.04770
0.04776
0.04744
0.04951
0.04960
0.04741
0.04699
0.04878
0.04833
0.04817
0.04171
0.05458
0.05219
0.04774
0.04609
0.04996
0.04842
0.04857
0.04859
0.04859
0.04822
0.04838
0.09559
-0.01287
-0.02277
0.05123
0.04699
0.04338
0.04255
0.05214
0.04799
0.04758
0.04808
0.04901
-0.12641
-0.06714
0.10484
0.11923
-0.04696
0.01737
-0.17235
-0.00314
-0.01748
0.03436
0.02696
-0.10050
-0.07641
0.00740
-0.06570
-0.08847
0.03175
-0.07463
0.14484
-0.13389
0.27087
-0.08610
-0.10642
-0.01454
0.11465
0.15681
0.17439
0.01672
0.07691
-0.19021
0.10224
-0.13810
0.04598
0.02690
0.18453
-0.13766
0.00520
0.01853
-0.05322
-0.02032
-0.08485
-0.16517
-0.05113
0.27749
0.07621
0.14257
0.13201
0.07235
0.18247
0.06864
0.01995
0.02056
-0.13240
-0.10890
0.00089
0.02034
-0.06399
-0.01165
-0.01834
0.03083
-0.02664
-0.17852
-0.05049
0.06378
-0.16089
0.10896
-0.02345
-0.02603
-0.01128
0.14072
0.10048
0.07918
0.02670
0.14443
0.04415
-0.03707
0.01703
0.09624
0.00910
-0.01284
-0.04026
0.00548
0.01335
-0.03597
-0.10411
-0.02349
-0.06524
-0.07575
-0.06399
-0.09810
0.11097
-0.10840
-0.12011
-0.02506
0.15837
-0.03084
0.13674
0.16630
0.05058
-0.03996
-0.16761
0.17344
-0.07522
-0.03480
-0.04583
-0.01625
0.23025
-0.02507
0.05256
0.08493
-0.05783
-0.04512
0.02015
0.09012
0.00813
0.04955
0.07623
0.02625
-0.04467
-0.03359
0.13331
-0.02474
-0.08650
0.18135
0.01374
0.08426
-0.01179
0.15107
-0.08267
0.00070
0.13638
-0.17745
-0.00813
-0.01645
-0.08547
0.04115
0.08948
-0.09113
0.12327
-0.01098
0.10265
-0.06221
-0.01664
-0.13784
0.14888
-0.12981
0.03765
-0.10566
-0.04052
-0.03170
0.03943
-0.04192
-0.03515
-0.06794
-0.03708
0.09693
-0.01544
-0.03722
-0.01369
0.15062
-0.06904
-0.06879
0.15430
0.25240
0.08127
-0.01812
0.19723
0.06409
-0.07980
0.25715
0.04181
0.07397
-0.04376
0.09318
0.06439
-0.09763
0.23084
0.01202
0.01868
-0.06284
-0.00310
0.03013
0.06377
0.06114
0.04692
0.01946
-0.01371
0.04349
0.16653
0.18617
-0.15151
-0.09684
-0.02037
-0.05904
0.19092
-0.07598
-0.02447
-0.00112
0.16054
-0.08536
-0.12249
0.08661
0.15409
0.01124
0.06567
-0.00947
0.12039
0.03937
-0.00880
-0.12048
-0.06816
-0.06642
-0.14453
-0.05717
0.19688
-0.13087
0.04401
0.07412
0.17023
-0.07479
0.14158
-0.13284
-0.05267
-0.09218
0.11856
-0.08123
0.03405
-0.02811
0.08262
-0.02280
0.00884
0.01462
0.04755
0.10453
-0.14828
0.04404
0.12574
-0.01172
-0.05737
0.10491
-0.06637
-0.07814
0.32511
0.16635
0.21672
-0.18161
0.32327
0.06458
0.07901
-0.04076
-0.01481
-0.13718
0.11717
0.20412
0.17046
0.05922
-0.08334
-0.01918
-0.02519
0.22795
0.21466
0.30278
-0.13986
0.00761
-0.01826
0.08067
-0.00943
-0.17015
0.02674
-0.04492
-0.02386
0.01782
0.09856
-0.14626
-0.08125
0.15607
-0.05208
0.09299
0.06951
-0.02537
-0.08583
0.14406
-0.08776
0.05121
-0.10253
-0.02392
-0.02892
0.06353
-0.02220
-0.01233
-0.01849
0.09284
-0.01628
0.00419
-0.06573
0.10736
-0.12443
0.01623
-0.07340
0.06252
0.13367
-0.16946
0.14085
0.11461
0.07002
-0.07216
-0.03547
-0.00662
0.05734
0.00833
0.21815
-0.06452
0.09334
0.42415
0.11753
-0.10954
-0.03370
0.00788
-0.01265
0.13357
-0.03624
0.16857
-0.10771
-0.10180
0.16622
0.32649
-0.14684
-0.10856
-0.09746
0.10732
0.17784
0.02944
0.23175
-0.06241
-0.05205
-0.03218
0.05999
-0.11290
-0.00122
0.01033
0.34577
0.04918
-0.04617
0.16984
0.17813
0.01858
0.15214
-0.03922
-0.00645
0.20327
-0.06873
0.05218
-0.09628
-0.01400
-0.14045
-0.16075
-0.12453
-0.14859
-0.09304
0.02446
-0.02060
-0.02930
-0.17039
0.15866
-0.19682
-0.00558
-0.18322
-0.14785
-0.18331
-0.15724
-0.09793
-0.06233
-0.08883
-0.03193
-0.14116
-0.09263
-0.14261
-0.06275
-0.22998
-0.06321
-0.21204
-0.05453
-0.14418
-0.10178
-0.20343
-0.02334
0.10000
