# vtk DataFile Version 3.0
Point representing Sub_cellular elem model
ASCII

DATASET UNSTRUCTURED_GRID
POINTS 656 float
-0.00114 1.73810 1.02126 
0.00206 1.74000 -1.12802 
1.74173 1.07592 -0.04835 
1.74317 -1.07519 -0.04645 
0.00331 -1.74368 -1.12424 
0.00057 -1.73754 1.02651 
1.07143 -0.00054 1.70231 
-1.07401 -0.00056 1.70239 
1.07967 -0.00235 -1.78954 
-1.07341 -0.00310 -1.79189 
-1.74312 1.07581 -0.05544 
-1.74056 -1.07833 -0.05193 
0.00078 2.05250 -0.05316 
1.02438 1.65847 0.58424 
0.62542 1.01794 1.61548 
-0.63923 1.02377 1.60274 
-1.02739 1.66076 0.57730 
1.02826 1.65965 -0.68462 
0.63726 1.02394 -1.71020 
-0.63167 1.02357 -1.71162 
-1.02577 1.65997 -0.68824 
2.05341 0.00077 -0.04708 
1.65510 0.63534 0.97854 
1.66338 0.63307 -1.07467 
1.02944 -1.66139 -0.68113 
1.02706 -1.65766 0.58670 
1.65857 -0.63053 0.97843 
1.66381 -0.63553 -1.07338 
0.00248 -2.05239 -0.04808 
0.63793 -1.02879 -1.70820 
-0.63099 -1.02934 -1.70968 
-1.02390 -1.66289 -0.68401 
0.63199 -1.02436 1.61585 
-0.63694 -1.02353 1.61585 
-1.02453 -1.65957 0.58365 
0.26946 0.07681 2.42227 
-1.66243 0.63240 0.96849 
-1.65972 -0.63457 0.97287 
0.00344 -0.00305 -2.10142 
-1.65960 0.63206 -1.07937 
-1.65889 -0.63725 -1.07791 
-2.05360 -0.00202 -0.05440 
-0.00004 1.97036 0.51752 
0.52177 1.76840 0.84263 
0.32002 1.44246 1.36475 
-0.32561 1.44420 1.36014 
-0.52400 1.77020 0.83824 
0.00147 1.97094 -0.62389 
0.52561 1.77033 -0.94608 
0.32613 1.44591 -1.46904 
-0.32119 1.44579 -1.46985 
-0.52200 1.77043 -0.94772 
1.44692 1.41748 0.27451 
1.44933 1.41768 -0.37283 
1.97190 0.57159 -0.04760 
1.76917 0.89501 0.47557 
1.77344 0.89431 -0.57186 
1.97277 -0.57032 -0.04668 
1.45060 -1.41825 -0.37005 
1.44919 -1.41643 0.27674 
1.77155 -0.89230 0.47659 
1.77421 -0.89515 -0.57010 
0.52682 -1.77313 -0.94224 
0.00299 -1.97284 -0.61925 
0.32710 -1.45040 -1.46612 
-0.32018 -1.45075 -1.46691 
-0.52053 -1.77383 -0.94363 
0.52405 -1.76781 0.84614 
0.00171 -1.96910 0.52256 
0.32267 -1.44446 1.36901 
-0.32443 -1.44479 1.36812 
-0.52213 -1.76871 0.84454 
0.89150 0.52219 1.72852 
1.41250 0.32511 1.40101 
1.41549 -0.32000 1.40050 
0.89638 -0.52616 1.72833 
0.56557 -0.00601 1.95997 
-0.90423 0.52291 1.72039 
-0.90031 -0.52213 1.73110 
-0.56206 -0.00088 1.97310 
-1.42020 0.32037 1.39223 
-1.41811 -0.32309 1.39641 
0.89812 0.52107 -1.82027 
1.42158 0.32167 -1.49621 
1.42179 -0.32545 -1.49556 
0.89846 -0.52597 -1.81925 
0.57481 -0.00277 -2.01984 
-0.89207 0.52048 -1.82218 
-0.89175 -0.52664 -1.82123 
-0.56807 -0.00316 -2.02099 
-1.41624 0.32070 -1.49964 
-1.41600 -0.32658 -1.49900 
-1.44975 1.41867 0.26719 
-1.44868 1.41805 -0.37844 
-1.77378 0.89419 0.46697 
-1.77199 0.89358 -0.57791 
-1.97308 0.57012 -0.05515 
-1.44630 -1.42060 -0.37435 
-1.44649 -1.41925 0.27232 
-1.77085 -0.89612 0.47077 
-1.77045 -0.89764 -0.57542 
-1.97152 -0.57369 -0.05322 
0.55657 1.95000 0.25371 
-0.55642 1.95141 0.25057 
0.55780 1.95052 -0.35715 
-0.55578 1.95121 -0.35944 
0.89465 1.39035 1.15647 
1.05137 1.76137 -0.05032 
1.38994 1.20449 0.85178 
-0.00396 1.04818 1.70846 
1.19778 0.89901 1.34697 
0.29324 0.53653 1.93546 
-0.90210 1.39306 1.14625 
-0.31315 0.55343 1.92401 
-1.20915 0.89842 1.33455 
-1.05131 1.76279 -0.05526 
-1.39681 1.20522 0.84183 
0.90295 1.39304 -1.25589 
1.39716 1.20471 -0.94960 
0.00290 1.04810 -1.81248 
1.20881 0.89849 -1.44374 
0.30877 0.55359 -2.00028 
-0.89860 1.39277 -1.25836 
-0.30238 0.55339 -2.00089 
-1.20387 0.89782 -1.44675 
-1.39395 1.20431 -0.95387 
1.94909 0.30708 0.50899 
1.95329 0.30510 -0.60406 
1.95009 -0.30313 0.50926 
1.95356 -0.30585 -0.60346 
1.75849 0.00311 1.00284 
1.76530 -0.00123 -1.09842 
1.05301 -1.76141 -0.04687 
1.39799 -1.20699 -0.94713 
0.55923 -1.95141 -0.35278 
0.90387 -1.39654 -1.25303 
1.39413 -1.20237 0.85246 
0.55830 -1.94941 0.25787 
0.89939 -1.39068 1.15736 
1.20434 -0.89735 1.34612 
1.20940 -0.90227 -1.44193 
-0.55384 -1.95233 -0.35437 
-0.55426 -1.95045 0.25622 
0.00358 -1.05365 -1.81050 
0.30912 -0.55930 -1.99925 
-0.89746 -1.39754 -1.25535 
-0.30204 -0.55952 -1.99989 
-1.20318 -0.90340 -1.44493 
-1.04871 -1.76330 -0.04997 
-1.39259 -1.20871 -0.95097 
-0.00380 -1.05380 1.71770 
0.29975 -0.55641 1.93365 
-0.89950 -1.39183 1.15503 
-0.30988 -0.55643 1.93755 
-1.20550 -0.89844 1.34394 
-1.39325 -1.20507 0.84844 
-1.76288 -0.00178 0.99480 
-1.95282 0.30395 0.50057 
-1.95165 -0.30733 0.50193 
-1.76100 -0.00271 -1.10325 
-1.95131 0.30346 -0.61032 
-1.95076 -0.30814 -0.60948 
-0.00053 1.87084 0.78063 
0.25956 1.76997 0.94265 
0.15912 1.60744 1.20259 
-0.16276 1.60810 1.20079 
-0.26161 1.77091 0.94035 
0.00178 1.87201 -0.88714 
0.26307 1.77199 -1.04778 
0.16363 1.61021 -1.30845 
-0.15908 1.61018 -1.30889 
-0.25915 1.77202 -1.04855 
1.61163 1.25670 0.11262 
1.61288 1.25670 -0.21008 
1.87332 0.83491 -0.04793 
1.77243 0.99611 0.21286 
1.77452 0.99588 -0.30931 
1.87452 -0.83390 -0.04654 
1.61424 -1.25663 -0.20773 
1.61348 -1.25574 0.11475 
1.77427 -0.99445 0.21437 
1.77557 -0.99589 -0.30744 
0.26431 -1.77526 -1.04392 
0.00317 -1.87487 -0.88290 
0.16475 -1.61437 -1.30509 
-0.15793 -1.61456 -1.30549 
-0.25780 -1.77560 -1.04460 
0.26152 -1.76939 0.94700 
0.00119 -1.86967 0.78566 
0.16111 -1.60790 1.20751 
-0.16126 -1.60814 1.20700 
-0.25998 -1.76984 0.94618 
0.99784 0.25883 1.73072 
1.25350 0.16134 1.56687 
1.25479 -0.15844 1.56676 
0.99906 -0.26177 1.73090 
0.83085 -0.00449 1.84257 
-1.00433 0.25881 1.72765 
-1.00117 -0.25893 1.73342 
-0.83139 0.00089 1.84814 
-1.25919 0.15776 1.56162 
-1.25764 -0.16035 1.56443 
0.99960 0.25857 -1.82171 
1.26056 0.15915 -1.66017 
1.26066 -0.16344 -1.65985 
0.99977 -0.26340 -1.82119 
0.83842 -0.00258 -1.92121 
-0.99342 0.25790 -1.82385 
-0.99326 -0.26411 -1.82338 
-0.83187 -0.00315 -1.92295 
-1.25470 0.15829 -1.66304 
-1.25459 -0.16437 -1.66274 
-1.61385 1.25720 0.10542 
-1.61328 1.25689 -0.21653 
-1.77539 0.99583 0.20506 
-1.77446 0.99544 -0.31595 
-1.87469 0.83418 -0.05535 
-1.61074 -1.25939 -0.21266 
-1.61084 -1.25881 0.10972 
-1.77260 -0.99795 0.20868 
-1.77240 -0.99876 -0.31293 
-1.87255 -0.83724 -0.05256 
0.00039 2.03176 0.23673 
0.00114 2.03197 -0.34305 
0.28535 2.02632 0.09584 
-0.28430 2.02699 0.09437 
0.28582 2.02650 -0.20075 
-0.28398 2.02699 -0.20201 
0.77939 1.73103 0.72203 
1.24924 1.55292 0.43340 
0.80471 1.82629 0.41918 
0.97768 1.54013 0.88107 
1.04498 1.73492 0.27157 
1.21805 1.44950 0.73326 
0.47817 1.24501 1.50293 
0.76577 0.77854 1.68916 
0.77496 1.21555 1.40328 
0.31926 1.04088 1.68594 
0.92226 0.97801 1.49591 
0.46053 0.79274 1.79130 
-0.48715 1.24881 1.49419 
-0.78126 0.78221 1.67720 
-0.32990 1.04644 1.67793 
-0.78544 1.21910 1.39142 
-0.47734 0.80318 1.77883 
-0.93545 0.98013 1.48284 
-0.78203 1.73333 0.71603 
-1.25234 1.55477 0.42611 
-0.80589 1.82832 0.41419 
-0.98267 1.54260 0.87262 
-1.04636 1.73686 0.26577 
-1.22316 1.45142 0.72455 
0.78339 1.73266 -0.82385 
1.25257 1.55354 -0.53269 
0.80705 1.82720 -0.52111 
1.04688 1.73549 -0.37215 
0.98372 1.54199 -0.98110 
1.22371 1.45047 -0.83228 
0.48568 1.24860 -1.60448 
0.77618 0.77890 -1.78288 
0.78532 1.21945 -1.50137 
0.32473 1.04293 -1.78616 
0.93386 0.97926 -1.59260 
0.47328 0.80276 -1.87738 
-0.48039 1.24835 -1.60562 
-0.77032 0.77841 -1.78455 
-0.31898 1.04274 -1.78686 
-0.78028 1.21908 -1.50329 
-0.46724 0.80246 -1.87836 
-0.92853 0.97873 -1.59479 
-0.78025 1.73287 -0.82646 
-1.25092 1.55394 -0.53734 
-0.80484 1.82781 -0.52419 
-1.04553 1.73632 -0.37638 
-0.98022 1.54195 -0.98414 
-1.22087 1.45044 -0.83627 
2.03275 0.29072 -0.04732 
2.03321 -0.28925 -0.04687 
2.02640 0.14963 0.23753 
2.02846 0.14850 -0.33205 
2.02674 -0.14683 0.23771 
2.02863 -0.14817 -0.33178 
1.72974 0.77358 0.73350 
1.54805 0.48443 1.20324 
1.53777 0.93066 0.93333 
1.44459 0.78264 1.17365 
1.82424 0.47171 0.75772 
1.73150 0.32407 0.99765 
1.73616 0.77218 -0.82970 
1.55739 0.48132 -1.29916 
1.54590 0.92969 -1.03017 
1.45444 0.78096 -1.27020 
1.83055 0.46931 -0.85339 
1.73918 0.32055 -1.09347 
1.25377 -1.55471 -0.52953 
0.78458 -1.73495 -0.82014 
1.04824 -1.73632 -0.36857 
1.22473 -1.45253 -0.82928 
0.80836 -1.82855 -0.51717 
0.98476 -1.54464 -0.97787 
1.25182 -1.55194 0.43571 
0.78195 -1.73037 0.72488 
1.04704 -1.73438 0.27464 
1.22156 -1.44827 0.73477 
0.80677 -1.82562 0.42257 
0.98127 -1.53953 0.88274 
1.73271 -0.76978 0.73394 
1.55164 -0.47899 1.20275 
1.82629 -0.46698 0.75790 
1.73344 -0.31823 0.99754 
1.54203 -0.92723 0.93346 
1.44969 -0.77877 1.17309 
1.73673 -0.77386 -0.82813 
1.55771 -0.48449 -1.29818 
1.83090 -0.47098 -0.85244 
1.73940 -0.32302 -1.09281 
1.54654 -0.93211 -1.02827 
1.45496 -0.78412 -1.26861 
0.00276 -2.03283 -0.33812 
0.00213 -2.03089 0.24183 
0.28737 -2.02689 -0.19600 
0.28698 -2.02590 0.10058 
-0.28215 -2.02739 -0.19682 
-0.28241 -2.02642 0.09974 
0.48650 -1.25332 -1.60202 
0.77668 -0.78380 -1.78136 
0.78612 -1.22369 -1.49893 
0.93451 -0.98361 -1.59066 
0.32541 -1.04819 -1.78416 
0.47380 -0.80810 -1.87585 
-0.47954 -1.25378 -1.60317 
-0.76983 -0.78442 -1.78311 
-0.31831 -1.04847 -1.78489 
-0.77940 -1.22445 -1.50084 
-0.46674 -0.80846 -1.87689 
-0.92786 -0.98444 -1.59288 
-0.77860 -1.73604 -0.82227 
-1.24879 -1.55663 -0.53313 
-0.80287 -1.82981 -0.51944 
-0.97875 -1.54590 -0.98052 
-1.04326 -1.73804 -0.37159 
-1.21921 -1.45418 -0.83267 
0.48212 -1.24901 1.50587 
0.77259 -0.78363 1.68922 
0.78089 -1.21799 1.40368 
0.92947 -0.97970 1.49543 
0.32176 -1.04832 1.69065 
0.46664 -0.80548 1.79164 
-0.48558 -1.24904 1.50509 
-0.77788 -0.78115 1.69064 
-0.32860 -1.04765 1.69097 
-0.78297 -1.21835 1.40224 
-0.47541 -0.80347 1.79361 
-0.93210 -0.97940 1.49461 
-0.77967 -1.73176 0.72255 
-1.24914 -1.55435 0.43197 
-0.80342 -1.82712 0.42016 
-1.04354 -1.73634 0.27153 
-0.97990 -1.54118 0.87992 
-1.21987 -1.45054 0.73122 
0.33198 -0.23955 2.14335 
0.02013 -0.31875 2.32190 
0.41637 0.01337 2.16059 
-0.00536 0.17383 2.53685 
-0.17836 -0.42009 2.12317 
-0.36506 -0.20580 2.17200 
-1.55603 0.48029 1.19316 
-1.73586 0.77185 0.72408 
-1.45389 0.78046 1.16239 
-1.54546 0.92960 0.92293 
-1.73757 0.31975 0.98848 
-1.82976 0.46855 0.74862 
-1.55360 -0.48277 1.19769 
[...]
CELL_DATA 1960
SCALARS Strain double 
LOOKUP_TABLE default 
-0.08760
-0.08981
-0.08692
-0.08924
-0.08791
-0.08803
-0.08721
-0.08771
-0.08757
-0.08731
-0.08761
-0.08808
-0.08834
-0.08751
-0.08725
-0.08791
-0.08742
-0.08833
-0.08766
-0.08800
-0.08733
-0.08801
-0.08780
-0.08759
-0.08748
-0.08815
-0.08796
-0.08869
-0.08769
-0.08845
-0.09993
-0.07455
-0.07914
-0.09505
-0.07534
-0.10442
-0.10284
-0.06026
-0.06583
-0.07107
-0.08758
-0.08750
-0.08758
-0.08755
-0.08751
-0.08749
-0.08748
-0.08763
-0.08766
-0.08766
-0.08781
-0.08717
-0.08897
-0.08891
-0.08654
-0.08790
-0.08755
-0.08833
-0.08795
-0.08746
-0.03510
-0.03512
0.06998
0.06908
0.06917
0.07017
-0.03621
-0.03516
0.06895
0.07219
0.07084
0.06753
-0.02687
-0.04672
0.08318
0.04581
0.07073
0.09519
-0.02889
-0.03736
0.05955
0.07164
0.08030
0.07083
-0.03366
-0.03379
0.06934
0.06644
0.06655
0.06982
-0.03387
-0.03403
0.06938
0.06931
0.06928
0.06944
-0.03419
-0.03417
0.06942
0.06968
0.06966
0.06945
-0.03405
-0.03404
0.06965
0.06918
0.06928
0.06961
-0.03376
-0.03372
0.07013
0.06797
0.06842
0.07007
-0.03491
-0.03479
0.07014
0.06888
0.06867
0.06990
-0.03360
-0.03364
0.06565
0.07109
0.07143
0.06599
-0.03397
-0.03401
0.06947
0.06943
0.06930
0.06948
-0.03382
-0.03381
0.06895
0.06917
0.06914
0.06904
-0.03496
-0.03510
0.06894
0.06865
0.06902
0.06911
-0.03395
-0.03366
0.06816
0.06811
0.06883
0.06811
-0.03436
-0.03429
0.06970
0.06942
0.06935
0.06971
-0.03485
-0.03486
0.06911
0.06936
0.06947
0.06906
-0.03423
-0.03419
0.06934
0.06974
0.06973
0.06941
-0.03403
-0.03401
0.06963
0.06916
0.06927
0.06958
-0.03410
-0.03416
0.06965
0.06884
0.06876
0.06970
-0.03188
-0.04293
0.07418
0.07575
0.06251
0.08172
-0.02621
-0.03657
0.05668
0.07536
0.08154
0.06949
-0.03515
-0.03474
0.06909
0.06901
0.06955
0.06878
0.10260
-0.03185
0.01838
0.04131
-0.18564
-0.14189
-0.03242
-0.03447
0.06556
0.07113
0.06963
0.06651
-0.03291
-0.03412
0.07018
0.06749
0.06693
0.07074
-0.03406
-0.03408
0.06949
0.06945
0.06947
0.06948
-0.03463
-0.03483
0.06943
0.07013
0.07013
0.06930
-0.03450
-0.03456
0.06932
0.06991
0.06999
0.06914
-0.03309
-0.03330
0.06773
0.06904
0.06888
0.06816
-0.06605
-0.04574
0.07996
0.07823
0.03283
0.03460
-0.06824
-0.04751
0.07978
0.08089
0.03480
0.03396
-0.06446
-0.04298
0.08065
0.07572
0.02848
0.03288
-0.06816
-0.04789
0.07896
0.07909
0.03417
0.03532
-0.06524
-0.04422
0.07805
0.07837
0.03223
0.03240
-0.06631
-0.04584
0.07986
0.08030
0.03463
0.03428
-0.06522
-0.04460
0.07979
0.07944
0.03366
0.03408
-0.06573
-0.04504
0.07959
0.08014
0.03443
0.03403
-0.06557
-0.04490
0.08013
0.07937
0.03387
0.03440
-0.06530
-0.04461
0.08022
0.07913
0.03317
0.03443
-0.06576
-0.04540
0.08042
0.07812
0.03319
0.03528
-0.06595
-0.04506
0.08002
0.07960
0.03392
0.03419
-0.06653
-0.04584
0.08056
0.07933
0.03364
0.03462
-0.06535
-0.04451
0.07758
0.08073
0.03482
0.03185
-0.06534
-0.04474
0.07956
0.07939
0.03391
0.03388
-0.06606
-0.04550
0.07892
0.08003
0.03441
0.03350
-0.06537
-0.04467
0.07929
0.07927
0.03354
0.03367
-0.06652
-0.04586
0.07930
0.07966
0.03405
0.03361
-0.06567
-0.04494
0.07869
0.07944
0.03337
0.03288
-0.06600
-0.04526
0.08001
0.07938
0.03386
0.03439
-0.06532
-0.04464
0.07960
0.07940
0.03360
0.03390
-0.06619
-0.04562
0.07964
0.08000
0.03433
0.03401
-0.06582
-0.04511
0.07954
0.08009
0.03444
0.03402
-0.06558
-0.04489
0.08005
0.07935
0.03383
0.03431
-0.06553
-0.04489
0.07998
0.07922
0.03348
0.03427
-0.06625
-0.04573
0.07877
0.07924
0.03341
0.03292
-0.06618
-0.04565
0.07902
0.07907
0.03344
0.03357
-0.06745
-0.04724
0.07950
0.08020
0.03443
0.03392
-0.06525
-0.04322
0.07945
0.07861
0.03130
0.03256
-0.06652
-0.04595
0.07915
0.07906
0.03339
0.03383
-0.05701
-0.04310
0.07801
0.07027
0.03319
0.03321
-0.06321
-0.04425
0.07821
0.07649
0.03198
0.03574
-0.06351
-0.04396
0.07690
0.07843
0.03377
0.03458
-0.05830
-0.04267
0.08219
0.07012
0.02992
0.04043
-0.03685
0.24492
0.13448
0.12247
0.02615
0.02606
-0.06198
-0.03648
0.08931
0.07477
0.02757
0.03795
-0.06414
-0.03938
0.08642
0.07996
0.02961
0.03978
-0.01424
0.15621
0.13303
0.02644
0.02629
-0.05476
-0.03973
0.07419
0.07479
0.03498
0.03184
-0.05821
-0.04152
0.08130
0.07289
0.03116
0.03833
-0.06562
-0.04498
0.07985
0.07982
0.03414
0.03421
-0.06553
-0.04486
0.07980
0.07981
0.03414
0.03406
-0.06566
-0.04506
0.07980
0.07993
0.03426
0.03411
-0.06560
-0.04498
0.07994
0.07975
0.03405
0.03426
-0.06554
-0.04488
0.07982
0.07976
0.03409
0.03413
-0.06551
-0.04486
0.07969
0.07975
0.03413
0.03392
-0.06549
-0.04483
0.07968
0.07974
0.03413
0.03391
-0.06563
-0.04494
0.07976
0.07976
0.03413
0.03413
-0.06581
-0.04529
0.07969
0.08011
0.03443
0.03396
-0.06580
-0.04525
0.07967
0.08009
0.03440
0.03392
-0.06582
-0.04496
0.07714
0.08123
0.03488
0.03129
-0.06516
-0.04451
0.07769
0.08054
0.03474
0.03267
-0.06725
-0.04631
0.08150
0.07796
0.03229
0.03547
-0.06680
-0.04590
0.08067
0.07948
0.03418
0.03510
-0.06444
-0.04379
0.07813
0.07911
0.03320
0.03272
-0.06584
-0.04507
0.07907
0.08004
0.03422
0.03350
-0.06572
-0.04529
0.07912
0.07924
0.03371
0.03371
-0.06644
-0.04557
0.07908
0.08002
0.03421
0.03343
-0.06606
-0.04542
0.08018
0.07913
0.03382
0.03466
-0.06531
-0.04439
0.07972
0.07873
0.03270
0.03371
0.07228
0.07199
0.01930
0.02061
0.01703
0.01631
0.07150
0.07152
0.02120
0.01846
0.01540
0.01813
0.07174
0.07180
0.02086
0.01992
0.01681
0.01753
0.07275
0.07272
0.02060
0.01916
0.01566
0.01744
0.07673
0.07988
0.01977
0.01409
0.01558
0.01208
0.07251
0.07204
0.02004
0.02006
0.01658
0.01728
0.06874
0.06804
0.02233
0.02083
0.01696
0.01982
0.07598
0.08689
0.01521
0.02201
0.02312
0.00503
0.07240
0.07325
0.02231
0.01627
0.01186
0.02002
0.12301
-0.17430
0.07597
0.02624
0.08998
0.02656
0.07058
0.06929
0.01908
0.02033
0.01727
0.01671
0.10319
0.03518
0.05711
0.02643
0.06760
0.02636
0.06851
0.06786
0.02108
0.02308
0.01973
0.01591
0.06944
0.06994
0.02082
0.02113
0.01806
0.01750
0.07336
0.07399
0.01758
0.01865
0.01585
0.01481
0.07182
0.07188
0.02041
0.02070
0.01745
0.01725
0.07197
0.07197
0.02045
0.02039
0.01735
0.01726
0.07220
0.07219
0.02039
0.02027
0.01714
0.01724
0.07212
0.07204
0.02045
0.02045
0.01726
0.01726
0.07198
0.07200
0.02054
0.02038
0.01718
0.01735
0.07152
0.07127
0.02069
0.02072
0.01755
0.01750
0.07186
0.07192
0.02049
0.02045
0.01726
0.01734
0.07207
0.07202
0.02011
0.02075
0.01756
0.01677
0.07259
0.07262
0.01941
0.02061
0.01748
0.01654
0.07304
0.07355
0.01976
0.01841
0.01561
0.01626
0.07154
0.07168
0.02077
0.02019
0.01703
0.01750
0.07089
0.07067
0.02088
0.01942
0.01596
0.01798
0.07229
0.07223
0.01998
0.02021
0.01704
0.01693
0.06950
0.07025
0.02189
0.01909
0.01593
0.01835
0.07199
0.07197
0.02030
0.02059
0.01744
0.01703
0.07141
0.07140
0.01983
0.02043
0.01734
0.01661
0.07172
0.07178
0.02008
0.02073
0.01757
0.01699
0.07164
0.07164
0.01983
0.02060
0.01739
0.01659
0.07166
0.07176
0.02024
0.02076
0.01758
0.01711
0.07118
0.07137
0.01981
0.01935
0.01665
0.01643
0.07163
0.07174
0.01971
0.01979
0.01661
0.01655
0.07212
0.07343
0.01954
0.01893
0.01721
0.01466
0.07170
0.07392
0.02047
0.01829
0.01603
0.01595
0.07223
0.07224
0.02038
0.02031
0.01707
0.01716
0.07206
0.07211
0.02030
0.01971
0.01647
0.01709
0.07152
0.07154
0.02005
0.01965
0.01645
0.01697
0.07222
0.07219
0.02040
0.02025
0.01715
0.01726
0.07196
0.07198
0.02057
0.02042
0.01720
0.01737
0.07155
0.07145
0.02056
0.02060
0.01745
0.01733
0.07187
0.07194
0.02049
0.02046
0.01728
0.01735
0.07202
0.07194
0.02012
0.02069
0.01749
0.01685
0.07123
0.07128
0.02040
0.02014
0.01705
0.01707
0.07227
0.07235
0.01988
0.02032
0.01725
0.01677
0.08475
0.08218
0.02000
0.01483
0.00962
0.01627
0.10139
-0.04348
0.06313
0.02571
0.06129
0.02573
0.07472
0.07303
0.01708
0.02099
0.01623
0.01593
0.09685
0.18147
0.05617
0.02556
0.06315
0.02556
0.07072
0.07192
0.02430
0.01879
0.01646
0.01960
0.07100
0.07052
0.02058
0.02014
0.01644
0.01832
0.07101
0.07004
0.01829
0.02309
0.01833
0.01513
0.06948
0.06984
0.02138
0.01971
0.01717
0.01781
0.07273
0.07203
0.02006
0.01869
0.01525
0.01735
0.07261
0.07256
0.02017
0.02010
0.01672
0.01689
0.07164
0.07146
0.02140
0.01936
0.01647
0.01817
0.07138
0.07105
0.02112
0.01993
0.01679
0.01807
0.07104
0.06894
-0.00767
-0.00559
0.07107
-0.00554
-0.00540
0.06867
-0.00952
-0.00719
0.07125
-0.00468
-0.00591
-0.00659
-0.00809
0.07109
0.07137
-0.00532
-0.00552
0.07074
-0.00627
-0.00584
0.07143
-0.00540
-0.00585
0.07057
-0.00600
-0.00545
-0.00647
-0.00561
0.07141
0.06972
-0.00653
-0.00522
0.07068
-0.00596
-0.00555
0.07160
0.07062
-0.00597
-0.00532
-0.00552
-0.00725
-0.00611
-0.00626
0.07018
0.07119
-0.00565
-0.00634
0.07064
0.07045
-0.00648
-0.00621
0.07094
-0.00568
-0.00606
-0.00626
-0.00682
-0.00613
-0.00553
0.07092
0.07073
-0.00626
-0.00598
0.07123
-0.00551
-0.00577
0.07131
-0.00546
-0.00586
0.07056
-0.00606
-0.00559
-0.00633
-0.00568
0.06994
0.07083
-0.00633
-0.00719
0.07039
-0.00648
-0.00659
0.07029
-0.00621
-0.00550
0.07026
-0.00740
-0.00690
-0.00639
-0.00611
0.05884
0.09979
-0.00806
-0.03229
0.06171
-0.00379
-0.00653
0.06561
-0.00481
-0.00302
0.08582
-0.00993
-0.01746
-0.02874
-0.02304
0.10587
0.06413
-0.01867
0.00296
0.09863
0.07094
-0.01475
0.00156
-0.03842
-0.03255
0.05618
-0.00615
-0.00526
-0.00883
0.00165
0.07106
0.07108
-0.00572
-0.00570
0.07104
-0.00576
-0.00580
0.07114
-0.00566
-0.00576
0.07101
-0.00581
-0.00567
-0.00579
-0.00575
0.07101
0.07094
-0.00581
-0.00591
0.07100
0.07094
-0.00581
-0.00592
-0.00574
-0.00572
0.07123
-0.00559
-0.00591
-0.00558
-0.00591
0.06890
0.07242
-0.00500
-0.00797
0.07179
-0.00543
-0.00730
0.06966
-0.00675
-0.00443
0.07050
-0.00561
-0.00470
-0.00692
-0.00716
0.07035
0.07127
-0.00571
-0.00633
0.07071
-0.00611
-0.00642
0.07101
-0.00577
-0.00594
0.07023
-0.00613
-0.00537
-0.00687
-0.00613
0.05554
0.05692
0.07759
0.07630
0.05682
0.05623
0.07717
0.07785
-0.01530
-0.01650
0.04900
-0.01600
-0.01742
0.05042
-0.01674
0.05000
-0.01723
0.04953
0.05740
0.05543
0.07702
0.07921
0.05532
0.05817
0.07820
0.07528
-0.01586
-0.01763
0.05003
-0.01603
-0.01953
0.04624
-0.01669
0.04941
-0.01648
0.05268
0.04400
0.05208
0.07875
0.07169
0.05837
0.06971
0.07778
0.06738
-0.02237
-0.01485
0.04813
0.01045
-0.01101
0.02702
-0.02034
0.05415
-0.04227
0.00725
0.04696
0.05211
0.08154
0.07260
0.06624
0.05365
0.07065
0.07301
0.00205
-0.02084
0.02612
-0.01529
-0.01470
0.04894
-0.02752
0.02716
-0.01187
0.04702
0.05355
0.05593
0.07620
0.07432
0.05666
0.05304
0.07425
0.07834
-0.01392
-0.01520
0.04716
-0.01470
-0.01612
0.04981
-0.01545
0.04968
-0.01660
0.04629
0.05593
0.05625
0.07717
0.07691
0.05612
0.05620
0.07725
0.07712
-0.01445
-0.01569
0.04933
-0.01610
0.04929
-0.01446
-0.01575
0.04960
-0.01600
0.04952
0.05651
0.05621
0.07709
0.07749
0.05626
0.05642
0.07733
0.07722
-0.01465
-0.01607
0.04980
-0.01471
-0.01613
0.04958
-0.01603
0.04957
-0.01607
0.04976
0.05605
0.05649
0.07747
0.07686
0.05636
0.05602
0.07706
0.07726
-0.01461
-0.01602
0.04945
-0.01446
-0.01586
0.04978
-0.01599
0.04973
-0.01584
0.04921
0.05506
0.05673
0.07776
0.07636
0.05697
0.05501
0.07538
0.07791
-0.01428
-0.01571
0.04796
-0.01562
0.05038
-0.01430
-0.01570
0.05005
-0.01569
0.04874
0.05558
0.05676
0.07799
0.07668
0.05675
0.05565
0.07635
0.07755
-0.01571
-0.01732
0.04863
-0.01506
-0.01651
0.04994
-0.01690
0.05037
-0.01640
0.04915
0.05752
0.05326
0.07406
0.07866
0.05255
0.05844
0.07835
0.07370
-0.01319
-0.01468
0.05051
-0.01506
0.04495
-0.01530
-0.01638
0.04718
-0.01705
0.05136
0.05616
0.05619
0.07712
0.07693
0.05630
0.05617
0.07720
0.07724
-0.01456
-0.01593
0.04963
-0.01597
0.04962
-0.01445
-0.01579
0.04953
-0.01589
0.04940
0.05583
0.05583
0.07668
0.07680
0.05575
0.05602
0.07696
0.07679
-0.01439
-0.01583
0.04913
-0.01429
-0.01570
0.04926
-0.01577
0.04900
-0.01569
0.04939
0.05595
0.05567
0.07664
0.07682
0.05557
0.05548
0.07647
0.07650
-0.01545
-0.01678
0.04946
-0.01531
-0.01692
0.04895
-0.01678
0.04892
-0.01713
0.04805
0.05523
0.05492
0.07595
0.07663
0.05516
0.05589
0.07537
0.07593
-0.01414
-0.01571
0.04824
-0.01544
0.04818
-0.01517
-0.01642
0.04873
-0.01693
0.04906
0.05612
0.05654
0.07745
0.07696
0.05646
0.05622
0.07721
0.07740
-0.01486
-0.01634
0.04950
-0.01617
0.04981
-0.01483
-0.01630
0.04989
-0.01616
0.04950
0.05636
0.05603
0.07698
0.07736
0.05574
0.05603
0.07680
0.07661
-0.01534
-0.01669
0.04961
-0.01673
0.04911
-0.01540
-0.01675
0.04932
-0.01679
0.04949
0.05657
0.05619
0.07703
0.07750
0.05617
0.05647
0.07742
0.07716
-0.01473
-0.01617
0.04990
-0.01607
0.04944
-0.01471
-0.01616
0.04957
-0.01606
0.04979
0.05602
0.05643
0.07743
0.07683
0.05635
0.05601
0.07705
0.07724
-0.01457
-0.01599
0.04945
-0.01447
-0.01589
0.04970
-0.01595
0.04973
-0.01584
0.04924
0.05558
0.05646
0.07740
0.07660
0.05641
0.05563
0.07649
0.07745
-0.01471
-0.01606
0.04884
-0.01460
-0.01593
0.04983
-0.01617
0.04965
-0.01607
0.04905
0.05340
0.05061
0.07539
0.08069
0.05307
0.07363
0.08215
0.06637
-0.01915
-0.01627
0.05128
-0.01677
0.04840
-0.00306
-0.01954
0.03122
-0.03432
0.03146
0.04860
0.04968
0.07773
0.07503
0.06340
0.05779
0.07219
0.07513
0.00547
-0.01282
0.02661
-0.01583
-0.01329
0.04824
-0.02580
0.02767
-0.01509
0.05183
0.05562
0.05604
0.07672
0.07672
0.05580
0.05610
0.07664
0.07655
-0.01516
-0.01663
0.04884
-0.01631
0.04927
-0.01561
-0.01784
0.04870
-0.01661
0.05012
-0.11294
0.09786
-0.16745
-0.21647
0.04870
0.09782
-0.07938
0.16054
-0.21248
0.02785
-0.17742
-0.11946
0.05763
0.05315
0.07230
0.07566
0.05345
0.05728
0.07899
0.07480
-0.01528
-0.01458
0.05185
-0.01783
0.04668
-0.01414
-0.01367
0.04693
-0.01667
0.04989
0.05367
0.05861
0.07839
0.07306
0.05659
0.05481
0.07591
0.07784
-0.01330
-0.01316
0.04781
-0.01576
0.04936
-0.01578
-0.01676
0.05106
-0.01734
0.04857
0.05624
0.05628
0.07723
0.07719
0.05628
0.05627
0.07718
0.07720
-0.01457
-0.01595
0.04954
-0.01598
0.04961
-0.01456
-0.01593
0.04958
-0.01598
0.04961
0.05675
0.05610
0.07713
0.07769
0.05627
0.05710
0.07802
0.07700
-0.01522
-0.01643
0.05007
-0.01685
0.04970
-0.01525
-0.01644
0.04931
-0.01688
0.05041
0.05664
0.05602
0.07709
0.07763
0.05605
0.05684
0.07766
0.07673
-0.01505
-0.01637
0.04993
-0.01651
0.04953
-0.01504
-0.01635
0.04916
-0.01649
0.05027
0.05559
0.05490
0.07546
0.07653
0.05463
0.05577
0.07699
0.07599
-0.01388
-0.01501
0.04928
-0.01561
0.04756
-0.01368
-0.01496
0.04859
-0.01524
0.04908
-0.01735
-0.01903
-0.01846
-0.01660
0.08567
0.08449
-0.02112
-0.01684
0.08811
-0.01489
-0.02034
0.08513
-0.01953
-0.01651
0.08232
-0.01787
-0.01679
-0.01818
-0.01693
0.08550
0.08618
-0.01688
-0.01728
0.08534
-0.01737
-0.01724
0.08583
-0.01707
-0.01691
0.08498
-0.01755
-0.01761
-0.01720
-0.01627
0.08593
0.08275
-0.01738
-0.01708
0.08546
-0.01868
-0.01743
-0.01773
-0.01690
0.08672
0.08513
-0.01791
-0.01704
-0.01757
-0.01764
0.08444
0.08582
-0.01707
-0.01797
-0.01693
-0.01758
0.08499
0.08521
-0.01828
-0.01755
0.08514
-0.01696
-0.01781
-0.01689
-0.01741
0.08531
0.08525
-0.01788
-0.01723
0.08573
-0.01742
-0.01723
0.08581
-0.01712
-0.01709
0.08505
-0.01793
-0.01788
-0.01776
-0.01888
0.08495
0.08467
-0.01792
-0.01789
0.08493
-0.02003
-0.01610
0.08860
-0.01682
-0.01863
0.08486
-0.01849
-0.01749
0.02119
-0.08272
0.08639
0.02126
-0.01821
-0.01697
0.08340
-0.01907
-0.01563
0.08649
0.00909
-0.05760
0.04262
0.01334
-0.07226
-0.01412
-0.01269
0.05159
0.08057
0.01144
-0.06233
-0.01809
-0.01231
0.04412
0.08565
-0.01242
-0.01734
0.08241
-0.01722
-0.01717
-0.01725
-0.01714
0.08562
0.08557
-0.01710
-0.01730
0.08557
-0.01730
-0.01723
0.08575
-0.01722
-0.01712
0.08552
-0.01718
-0.01721
-0.01703
-0.01748
0.08547
0.08554
-0.01715
-0.01721
-0.01703
-0.01747
0.08548
0.08551
-0.01748
-0.01745
0.08600
-0.01684
-0.01668
-0.01810
-0.01945
0.08311
0.08733
-0.01692
-0.01836
0.08630
-0.01837
-0.01602
0.08346
-0.01835
-0.01611
0.08508
-0.01746
-0.01732
-0.01739
-0.01774
0.08482
0.08589
-0.01745
-0.01759
0.08457
-0.01850
-0.01715
0.08583
-0.01768
-0.01663
0.08472
0.04851
0.04787
0.04831
0.04827
0.04919
0.04627
0.05254
0.04375
0.04837
0.10496
-0.03512
-0.02148
0.04526
0.04588
0.05007
0.04828
0.04835
0.04847
0.04849
0.04834
0.04824
0.04776
0.04849
0.04880
0.04956
0.04706
0.04653
0.04802
0.04859
0.04826
0.04770
0.04786
0.04828
0.04818
0.04810
0.04864
0.04716
0.04759
0.04853
0.04831
0.04803
0.04755
0.04851
0.04834
0.04827
0.04788
0.04837
0.04862
0.09634
-0.01353
-0.01620
0.04979
0.04733
0.04718
0.04797
0.04596
0.04877
0.04909
0.04792
0.04764
-0.06648
-0.20932
0.14624
-0.24229
0.13635
0.01922
-0.00865
-0.04257
-0.09655
-0.11592
-0.15206
-0.16009
-0.04961
0.12665
-0.00046
0.09212
-0.13217
-0.14806
0.17782
-0.12902
0.03969
-0.13047
0.02958
0.05984
-0.05191
-0.01542
0.07757
-0.12538
0.20262
-0.12481
0.24218
-0.14832
-0.24658
0.00228
0.22004
-0.10491
0.15183
-0.21203
-0.11261
0.23365
-0.20745
-0.07384
-0.13254
-0.12161
-0.01054
-0.10638
0.10000
