# vtk DataFile Version 3.0
Point representing Sub_cellular elem model
ASCII

DATASET UNSTRUCTURED_GRID
POINTS 737 float
0.00437 1.71995 0.65834 
0.00579 1.73180 -1.49353 
1.74555 1.06510 -0.41487 
1.74528 -1.08649 -0.41632 
0.00531 -1.75180 -1.49416 
0.00384 -1.74487 0.65924 
1.08480 -0.01045 1.33878 
-1.06427 -0.01454 1.34012 
1.08319 -0.01000 -2.15653 
-1.07017 -0.01023 -2.15998 
-1.73535 1.06296 -0.41924 
-1.73462 -1.08667 -0.41763 
0.00490 2.03950 -0.41724 
1.02853 1.64517 0.21878 
0.63669 1.00996 1.25710 
-0.62070 1.00026 1.25473 
-1.01868 1.64232 0.21540 
1.03214 1.65046 -1.04998 
0.64113 1.01658 -2.07620 
-0.62816 1.01643 -2.07838 
-1.02148 1.64967 -1.05308 
2.05672 -0.01052 -0.41564 
1.66063 0.62251 0.61069 
1.66726 0.62430 -1.44132 
1.03122 -1.67102 -1.05128 
1.02820 -1.66787 0.21660 
1.66163 -0.64317 0.60837 
1.66694 -0.64492 -1.44197 
0.00400 -2.06060 -0.41731 
0.64074 -1.03655 -2.07717 
-0.62822 -1.03659 -2.07886 
-1.02101 -1.67060 -1.05244 
0.63913 -1.03317 1.24993 
-0.62245 -1.02964 1.25874 
-1.01930 -1.66659 0.21835 
0.04173 0.58224 2.12055 
-1.64814 0.61760 0.60755 
-1.64891 -0.64471 0.61048 
0.00698 -0.00985 -2.46888 
-1.65574 0.62337 -1.44586 
-1.65526 -0.64533 -1.44549 
-2.04591 -0.01238 -0.41894 
0.00465 1.95389 0.15375 
0.52629 1.75284 0.47816 
0.32612 1.42731 1.00376 
-0.31724 1.42388 1.00197 
-0.51703 1.75051 0.47602 
0.00528 1.96101 -0.98866 
0.52942 1.76178 -1.31137 
0.32996 1.43841 -1.83487 
-0.31756 1.43830 -1.83595 
-0.51826 1.76147 -1.31304 
1.45084 1.40567 -0.09148 
1.45322 1.40769 -0.73862 
1.97557 0.56062 -0.41516 
1.77322 0.88291 0.10836 
1.77734 0.88468 -0.93845 
1.97552 -0.58179 -0.41601 
1.45251 -1.42877 -0.74012 
1.45060 -1.42757 -0.09352 
1.77360 -0.90433 0.10656 
1.77693 -0.90564 -0.93946 
0.52864 -1.78191 -1.31233 
0.00465 -1.98120 -0.98904 
0.32945 -1.45841 -1.83584 
-0.31779 -1.45836 -1.83654 
-0.51835 -1.78167 -1.31309 
0.52581 -1.77654 0.47697 
0.00361 -1.97687 0.15418 
0.32719 -1.45228 1.00178 
-0.31745 -1.45115 1.00415 
-0.51798 -1.77548 0.47854 
0.90840 0.51477 1.36828 
1.42149 0.31271 1.03375 
1.42248 -0.33250 1.03146 
0.91014 -0.53686 1.36204 
0.59059 -0.01588 1.61041 
-0.88132 0.50685 1.36912 
-0.88392 -0.53618 1.37373 
-0.56320 -0.01384 1.60988 
-1.40429 0.30735 1.03279 
-1.40536 -0.33575 1.03524 
0.90186 0.51363 -2.18658 
1.42527 0.31352 -1.86292 
1.42513 -0.33381 -1.86327 
0.90167 -0.53357 -2.18716 
0.57835 -0.00987 -2.38690 
-0.88870 0.51343 -2.18964 
-0.88868 -0.53373 -2.18988 
-0.56467 -0.00997 -2.38892 
-1.41293 0.31304 -1.86716 
-1.41279 -0.33416 -1.86715 
-1.44085 1.40319 -0.09548 
-1.44294 1.40625 -0.74264 
-1.76274 0.87963 0.10432 
-1.76664 0.88317 -0.94297 
-1.96508 0.55838 -0.41926 
-1.44209 -1.42849 -0.74139 
-1.44061 -1.42699 -0.09311 
-1.76266 -0.90497 0.10659 
-1.76580 -0.90599 -0.94204 
-1.96460 -0.58282 -0.41826 
0.56046 1.93652 -0.11086 
-0.55084 1.93545 -0.11272 
0.56155 1.93992 -0.72189 
-0.55138 1.93937 -0.72366 
0.90061 1.37733 0.79170 
1.05515 1.75012 -0.41552 
1.39498 1.19171 0.48538 
0.00745 1.03240 1.36069 
1.20657 0.88754 0.98160 
0.32793 0.53228 1.59673 
-0.88990 1.37137 0.78799 
-0.27807 0.52693 1.59774 
-1.19145 0.87965 0.97828 
-1.04523 1.74874 -0.41868 
-1.38396 1.18701 0.48127 
0.90689 1.38506 -1.62158 
1.40114 1.19601 -1.31553 
0.00666 1.04105 -2.17883 
1.21271 0.89054 -1.80981 
0.31252 0.54661 -2.36681 
-0.89508 1.38465 -1.62445 
-0.29875 0.54657 -2.36794 
-1.20050 0.89008 -1.81361 
-1.38998 1.19512 -1.31959 
1.95282 0.29478 0.14040 
1.95699 0.29518 -0.97161 
1.95305 -0.31552 0.13972 
1.95687 -0.31614 -0.97196 
1.76315 -0.00992 0.63346 
1.76888 -0.01033 -1.46599 
1.05423 -1.77156 -0.41714 
1.40049 -1.21658 -1.31668 
0.56053 -1.96058 -0.72287 
0.90622 -1.40526 -1.62272 
1.39585 -1.21385 0.48228 
0.55940 -1.95852 -0.11190 
0.90182 -1.40058 0.78803 
1.20861 -0.90905 0.97669 
1.21229 -0.91077 -1.81071 
-0.55160 -1.96009 -0.72313 
-0.55151 -1.95775 -0.11139 
0.00637 -1.06097 -2.17966 
0.31234 -0.56638 -2.36741 
-0.89485 -1.40514 -1.62447 
-0.29886 -0.56643 -2.36841 
-1.20022 -0.91091 -1.81360 
-1.04505 -1.77073 -0.41716 
-1.38928 -1.21655 -1.31904 
0.00763 -1.05962 1.35646 
0.32272 -0.56032 1.58280 
-0.89117 -1.39864 0.79263 
-0.28235 -0.55605 1.59648 
-1.19322 -0.90811 0.98366 
-1.38476 -1.21315 0.48530 
-1.75009 -0.01367 0.63298 
-1.94184 0.29162 0.13756 
-1.94184 -0.31767 0.13843 
-1.75717 -0.01110 -1.47033 
-1.94595 0.29378 -0.97595 
-1.94562 -0.31711 -0.97560 
0.00453 1.85316 0.41709 
0.26448 1.75306 0.57894 
0.16473 1.59021 0.84035 
-0.15628 1.58898 0.83946 
-0.25556 1.75169 0.57776 
0.00552 1.86311 -1.25230 
0.26683 1.76365 -1.41315 
0.16741 1.60246 -1.67416 
-0.15539 1.60240 -1.67468 
-0.25545 1.76352 -1.41399 
1.61547 1.24545 -0.25362 
1.61674 1.24629 -0.57620 
1.87708 0.82404 -0.41496 
1.77628 0.98463 -0.15398 
1.77837 0.98569 -0.67587 
1.87695 -0.84534 -0.41616 
1.61625 -1.26756 -0.57771 
1.61523 -1.26705 -0.25537 
1.77630 -1.00613 -0.15556 
1.77799 -1.00685 -0.67709 
0.26621 -1.78369 -1.41394 
0.00499 -1.88314 -1.25281 
0.16689 -1.62246 -1.67498 
-0.15575 -1.62241 -1.67529 
-0.25577 -1.78356 -1.41436 
0.26396 -1.77735 0.57870 
0.00362 -1.87718 0.41781 
0.16491 -1.61540 0.84022 
-0.15651 -1.61497 0.84104 
-0.25636 -1.77676 0.57960 
1.01332 0.24995 1.36871 
1.26461 0.14986 1.20095 
1.26528 -0.16976 1.19942 
1.01459 -0.27148 1.36549 
0.84885 -0.01185 1.48393 
-0.98776 0.24510 1.37025 
-0.98906 -0.27422 1.37316 
-0.82510 -0.01447 1.48556 
-1.24475 0.14543 1.20151 
-1.24542 -0.17427 1.20305 
1.00324 0.25105 -2.18832 
1.26416 0.15127 -2.02699 
1.26409 -0.17141 -2.02717 
1.00314 -0.27100 -2.18861 
0.84194 -0.00992 -2.28819 
-0.99011 0.25083 -2.19164 
-0.99008 -0.27120 -2.19175 
-0.82857 -0.01009 -2.29101 
-1.25145 0.15094 -2.03090 
-1.25140 -0.17170 -2.03093 
-1.60542 1.24315 -0.25783 
-1.60655 1.24449 -0.58046 
-1.76607 0.98201 -0.15823 
-1.76799 0.98386 -0.68031 
-1.86676 0.82181 -0.41929 
-1.60567 -1.26749 -0.57899 
-1.60484 -1.26690 -0.25588 
-1.76562 -1.00647 -0.15634 
-1.76712 -1.00713 -0.67905 
-1.86611 -0.84590 -0.41791 
0.00477 2.01696 -0.12716 
0.00507 2.02065 -0.70744 
0.28931 2.01301 -0.26840 
-0.27963 2.01255 -0.26936 
0.28966 2.01481 -0.56516 
-0.27969 2.01448 -0.56609 
0.78368 1.71670 0.35696 
1.25327 1.54044 0.06767 
0.80864 1.81282 0.05418 
0.98247 1.52650 0.51563 
1.04884 1.72252 -0.09373 
1.22260 1.43648 0.36736 
0.48589 1.23322 1.14351 
0.78079 0.77196 1.33053 
0.78291 1.20440 1.04056 
0.32990 1.03104 1.33339 
0.93264 0.96833 1.13320 
0.47816 0.78845 1.44062 
-0.47481 1.22662 1.14105 
-0.75775 0.76082 1.33002 
-0.31469 1.02431 1.33209 
-0.77071 1.19643 1.03712 
-0.45271 0.77834 1.44006 
-0.91652 0.95867 1.13041 
-0.77406 1.71392 0.35411 
-1.24332 1.53775 0.06393 
-0.79899 1.81094 0.05150 
-0.97236 1.52232 0.51204 
-1.03905 1.72058 -0.09696 
-1.21230 1.43260 0.36347 
0.78724 1.72382 -1.18914 
1.25646 1.54396 -0.89823 
0.81084 1.81744 -0.88617 
1.05068 1.72535 -0.73738 
0.98765 1.53351 -1.34663 
1.22767 1.44163 -1.19792 
0.48955 1.24121 -1.97040 
0.78000 0.77151 -2.14899 
0.78923 1.21182 -1.86720 
0.32856 1.03577 -2.15230 
0.93775 0.97163 -1.95857 
0.47710 0.79560 -2.24359 
-0.47682 1.24107 -1.97205 
-0.76688 0.77134 -2.15166 
-0.31534 1.03570 -2.15343 
-0.77682 1.21156 -1.86980 
-0.46366 0.79552 -2.24528 
-0.92514 0.97134 -1.96165 
-0.77633 1.72330 -1.19158 
-1.24602 1.54287 -0.90186 
-0.80044 1.81675 -0.88866 
-1.04047 1.72433 -0.74051 
-0.97645 1.53292 -1.34966 
-1.21675 1.44078 -1.20155 
2.03627 0.27959 -0.41540 
2.03626 -0.30066 -0.41584 
2.02979 0.13782 -0.13108 
2.03199 0.13790 -0.70009 
2.02985 -0.15875 -0.13136 
2.03195 -0.15894 -0.70029 
1.73430 0.76100 0.36590 
1.55507 0.47164 0.83542 
1.54320 0.91793 0.56629 
1.45162 0.77011 0.80674 
1.82866 0.45904 0.38934 
1.73676 0.31111 0.62895 
1.74008 0.76302 -1.19632 
1.56119 0.47288 -1.66583 
1.54986 0.92101 -1.39644 
1.45835 0.77263 -1.63650 
1.83437 0.46001 -1.22046 
1.74293 0.31163 -1.46056 
1.25560 -1.56479 -0.89965 
0.78635 -1.74414 -1.19028 
1.04972 -1.74627 -0.73882 
1.22686 -1.46218 -1.19920 
0.80985 -1.83803 -0.88738 
0.98684 -1.55385 -1.34784 
1.25300 -1.56271 0.06545 
0.78327 -1.73988 0.35511 
1.04812 -1.74460 -0.09557 
1.22290 -1.45909 0.36462 
0.80783 -1.83527 0.05258 
0.98279 -1.54963 0.51289 
1.73503 -0.78214 0.36384 
1.55617 -0.49178 0.83296 
1.82921 -0.47964 0.38800 
1.73732 -0.33117 0.62772 
1.54434 -0.93937 0.56330 
1.45317 -0.79110 0.80316 
1.73969 -0.78381 -1.19714 
1.56096 -0.49333 -1.66633 
1.83414 -0.48081 -1.22097 
1.74277 -0.33227 -1.46090 
1.54937 -0.94160 -1.39737 
1.45796 -0.79306 -1.63730 
0.00431 -2.04117 -0.70768 
0.00375 -2.03890 -0.12701 
0.28867 -2.03562 -0.56576 
0.28824 -2.03452 -0.26893 
-0.28029 -2.03531 -0.56580 
-0.28041 -2.03413 -0.26877 
0.48908 -1.26120 -1.97143 
0.77970 -0.79146 -2.14981 
0.78871 -1.23190 -1.86828 
0.93734 -0.99171 -1.95953 
0.32821 -1.05569 -2.15323 
0.47682 -0.81547 -2.24442 
-0.47695 -1.26118 -1.97260 
-0.76689 -0.79156 -2.15203 
-0.31553 -1.05570 -2.15411 
-0.77676 -1.23188 -1.87009 
-0.46378 -0.81553 -2.24582 
-0.92504 -0.99178 -1.96189 
-0.77615 -1.74378 -1.19127 
-1.24532 -1.56439 -0.90089 
-0.80028 -1.83751 -0.88802 
-0.97606 -1.55360 -1.34936 
-1.04007 -1.74566 -0.73947 
-1.21609 -1.46194 -1.20094 
0.48802 -1.25761 1.13866 
0.78294 -0.79445 1.32270 
0.78501 -1.22755 1.03546 
0.93504 -0.99053 1.12702 
0.33204 -1.05646 1.32604 
0.47934 -0.81264 1.43051 
-0.47571 -1.25532 1.14377 
-0.76030 -0.79038 1.33499 
-0.31613 -1.05364 1.33189 
-0.77213 -1.22501 1.04197 
-0.45560 -0.80775 1.44196 
-0.91844 -0.98779 1.13599 
-0.77497 -1.73857 0.35699 
-1.24351 -1.56172 0.06667 
-0.79960 -1.83417 0.05363 
-1.03924 -1.74356 -0.09481 
-0.97338 -1.54807 0.51590 
-1.21300 -1.45789 0.36714 
0.15804 -0.50512 1.79211 
-0.12144 -0.48098 2.12383 
0.51224 0.10503 1.89681 
0.38934 -0.41482 2.48574 
-0.32602 -0.32321 1.86572 
-0.46307 -0.11457 2.08716 
-1.54056 0.46617 0.83316 
-1.72312 0.75692 0.36222 
-1.43785 0.76390 0.80336 
-1.53136 0.91288 0.56241 
-1.72385 0.30662 0.62706 
-1.81712 0.45507 0.38649 
[...]
CELL_DATA 2203
SCALARS Strain double 
LOOKUP_TABLE default 
-0.08505
-0.09042
-0.08670
-0.08614
-0.09036
-0.08815
-0.08701
-0.08787
-0.08749
-0.08727
-0.08806
-0.08805
-0.08829
-0.08783
-0.08773
-0.08781
-0.08783
-0.08822
-0.08826
-0.08826
-0.08763
-0.08775
-0.08755
-0.08779
-0.08750
-0.08951
-0.08596
-0.08798
-0.08692
-0.09040
-0.09799
-0.07856
-0.07648
-0.09818
-0.08026
-0.09579
-0.09575
-0.07066
-0.07648
-0.07800
-0.08745
-0.08752
-0.08766
-0.08738
-0.08753
-0.08735
-0.08757
-0.08750
-0.08772
-0.08732
-0.08829
-0.08750
-0.08701
-0.08787
-0.08822
-0.08859
-0.08781
-0.08672
-0.08641
-0.08918
-0.03401
-0.03448
0.06936
0.06839
0.06851
0.06953
-0.03681
-0.03599
0.06837
0.07235
0.07096
0.06703
-0.02929
-0.04463
0.08133
0.05190
0.07413
0.09047
-0.02952
-0.05054
0.05098
0.09278
0.11020
0.07426
-0.03659
-0.03580
0.06842
0.07346
0.07123
0.06757
-0.03363
-0.03381
0.06907
0.06900
0.06891
0.06928
-0.03417
-0.03409
0.06930
0.06995
0.06987
0.06945
-0.03388
-0.03386
0.06998
0.06906
0.06920
0.06995
-0.03376
-0.03380
0.06969
0.06880
0.06871
0.06969
-0.03443
-0.03431
0.06915
0.06838
0.06817
0.06897
-0.03474
-0.03542
0.06571
0.07020
0.07046
0.06606
-0.03449
-0.03442
0.06983
0.06937
0.06911
0.06996
-0.03420
-0.03417
0.06882
0.06949
0.06945
0.06884
-0.03525
-0.03570
0.06932
0.06763
0.06804
0.06981
-0.03494
-0.03499
0.06754
0.06783
0.06822
0.06700
-0.03474
-0.03463
0.06930
0.06994
0.06981
0.06949
-0.03381
-0.03351
0.06914
0.06804
0.06814
0.06891
-0.03403
-0.03399
0.06911
0.06976
0.06977
0.06924
-0.03423
-0.03419
0.06968
0.06960
0.06958
0.06961
-0.03437
-0.03457
0.06869
0.07004
0.07040
0.06887
-0.02871
-0.04371
0.07612
0.07317
0.05324
0.08489
-0.02815
-0.04894
0.04861
0.08889
0.10434
0.07291
-0.03719
-0.03619
0.06803
0.07270
0.07425
0.06663
-0.12564
0.02137
0.20368
0.02151
0.09472
-0.02974
-0.03079
0.07052
0.06484
0.06457
0.06985
-0.03138
-0.03174
0.07301
0.06319
0.06349
0.07264
-0.03396
-0.03396
0.06964
0.06944
0.06945
0.06963
-0.03459
-0.03464
0.06993
0.06972
0.06971
0.06995
-0.03354
-0.03337
0.06915
0.06921
0.06936
0.06897
-0.03532
-0.03554
0.06899
0.07104
0.07058
0.06891
-0.06392
-0.04415
0.07857
0.07785
0.03204
0.03291
-0.06860
-0.04787
0.07843
0.08328
0.03610
0.03252
-0.06515
-0.04505
0.08481
0.07424
0.03015
0.03945
-0.06345
-0.04302
0.07314
0.08622
0.04171
0.02843
-0.06852
-0.04772
0.07829
0.08415
0.03645
0.03324
-0.06630
-0.04557
0.07957
0.08032
0.03463
0.03394
-0.06499
-0.04435
0.07959
0.07927
0.03351
0.03395
-0.06585
-0.04509
0.07948
0.08049
0.03477
0.03406
-0.06546
-0.04475
0.08046
0.07917
0.03374
0.03471
-0.06527
-0.04459
0.08026
0.07900
0.03332
0.03447
-0.06644
-0.04624
0.08018
0.07800
0.03314
0.03509
-0.06584
-0.04489
0.07961
0.07941
0.03348
0.03369
-0.06629
-0.04545
0.07983
0.07893
0.03307
0.03384
-0.06580
-0.04520
0.07747
0.08004
0.03406
0.03183
-0.06591
-0.04533
0.07967
0.07918
0.03389
0.03424
-0.06580
-0.04511
0.07872
0.07917
0.03343
0.03312
-0.06580
-0.04508
0.07896
0.07960
0.03381
0.03335
-0.06645
-0.04592
0.07903
0.07900
0.03334
0.03343
-0.06638
-0.04573
0.07862
0.07898
0.03317
0.03272
-0.06634
-0.04565
0.07936
0.07979
0.03435
0.03399
-0.06567
-0.04500
0.07990
0.07933
0.03369
0.03419
-0.06571
-0.04488
0.07983
0.07923
0.03353
0.03399
-0.06558
-0.04490
0.07938
0.08003
0.03437
0.03385
-0.06581
-0.04511
0.08000
0.07980
0.03414
0.03427
-0.06560
-0.04505
0.07932
0.07988
0.03438
0.03376
-0.06733
-0.04650
0.07758
0.08093
0.03465
0.03205
-0.06425
-0.04398
0.07749
0.07862
0.03304
0.03179
-0.06657
-0.04640
0.08142
0.07652
0.03214
0.03559
-0.06480
-0.04415
0.07506
0.08361
0.03740
0.02927
-0.06884
-0.04824
0.07862
0.08308
0.03663
0.03307
-0.05430
-0.03860
0.07511
0.06789
0.02659
0.02640
-0.06631
-0.04676
0.07641
0.07644
0.03320
0.03455
-0.06443
-0.04556
0.07737
0.07261
0.03080
0.03528
-0.05308
-0.03727
0.07255
0.06409
0.02496
0.02745
-0.04516
-0.07408
0.14280
0.13077
0.02546
0.02611
-0.06185
-0.05334
0.07182
0.09258
0.05759
0.04232
-0.06285
-0.05276
0.07247
0.09182
0.05387
0.04000
-0.03748
0.11259
0.11560
0.02525
0.02524
-0.06012
-0.03981
0.08571
0.07361
0.02807
0.03730
-0.06205
-0.04191
0.08717
0.07318
0.02755
0.03974
-0.06548
-0.04485
0.07987
0.07986
0.03407
0.03430
-0.06566
-0.04513
0.07972
0.08016
0.03444
0.03390
-0.06584
-0.04533
0.08016
0.07984
0.03407
0.03444
-0.06541
-0.04478
0.07992
0.07965
0.03386
0.03428
-0.06550
-0.04481
0.07993
0.07975
0.03412
0.03427
-0.06535
-0.04468
0.07962
0.08008
0.03438
0.03385
-0.06562
-0.04499
0.08001
0.07979
0.03422
0.03435
-0.06549
-0.04481
0.07971
0.08000
0.03433
0.03409
-0.06588
-0.04533
0.08012
0.08001
0.03443
0.03453
-0.06527
-0.04451
0.07963
0.07989
0.03410
0.03380
-0.06654
-0.04616
0.08035
0.07865
0.03353
0.03585
-0.06545
-0.04469
0.07958
0.07953
0.03380
0.03359
-0.06431
-0.04270
0.07800
0.07918
0.03328
0.03182
-0.06606
-0.04546
0.07958
0.08023
0.03454
0.03401
-0.06647
-0.04598
0.07925
0.08049
0.03524
0.03360
-0.06653
-0.04563
0.08140
0.07889
0.03317
0.03520
-0.06626
-0.04621
0.08211
0.07683
0.03229
0.03716
-0.06422
-0.04304
0.07602
0.08137
0.03505
0.03033
-0.06451
-0.04402
0.07895
0.07917
0.03354
0.03339
-0.06735
-0.04658
0.08142
0.07937
0.03406
0.03545
0.07166
0.07139
0.01852
0.02139
0.01748
0.01557
0.07086
0.07093
0.01943
0.02142
0.01736
0.01643
0.07119
0.07138
0.02083
0.01989
0.01699
0.01751
0.07215
0.07220
0.02022
0.01973
0.01683
0.01703
0.07670
0.07933
0.01834
0.01582
0.01598
0.01154
0.07250
0.07185
0.02004
0.01945
0.01587
0.01728
0.06840
0.06793
0.02188
0.02005
0.01651
0.01868
0.07439
0.07406
0.02517
0.02932
0.02836
0.01775
0.07350
0.07283
0.01779
0.01783
0.01249
0.01756
0.11388
-0.14340
0.05188
0.02574
0.10117
0.02498
0.08540
0.07958
0.01442
0.01951
0.01199
0.01498
0.14321
-0.02861
0.09077
0.02524
0.07279
0.02530
0.07568
0.07432
0.03017
0.01308
0.01009
0.02523
0.07242
0.07168
0.02008
0.01999
0.01661
0.01701
0.06894
0.06791
0.02380
0.01944
0.01593
0.02279
0.07150
0.07165
0.02037
0.02100
0.01770
0.01731
0.07199
0.07218
0.01995
0.02049
0.01753
0.01682
0.07250
0.07251
0.02049
0.02019
0.01712
0.01739
0.07225
0.07209
0.02024
0.02070
0.01743
0.01693
0.07206
0.07212
0.02068
0.02042
0.01719
0.01754
0.07141
0.07128
0.02098
0.02075
0.01757
0.01778
0.07182
0.07190
0.02071
0.02063
0.01743
0.01754
0.07245
0.07244
0.02004
0.02076
0.01758
0.01675
0.07220
0.07222
0.01982
0.02089
0.01775
0.01667
0.07205
0.07255
0.01907
0.01853
0.01580
0.01542
0.07111
0.07136
0.02002
0.02071
0.01764
0.01684
0.07045
0.07024
0.01981
0.01942
0.01610
0.01679
0.07149
0.07162
0.01955
0.02079
0.01767
0.01651
0.06953
0.07017
0.02049
0.01744
0.01482
0.01701
0.07252
0.07252
0.02004
0.02025
0.01694
0.01668
0.07139
0.07155
0.02003
0.01970
0.01659
0.01671
0.07207
0.07219
0.01973
0.02048
0.01741
0.01664
0.07192
0.07183
0.02007
0.01980
0.01661
0.01701
0.07141
0.07150
0.02051
0.02067
0.01747
0.01738
0.07014
0.07046
0.01970
0.01894
0.01583
0.01618
0.07050
0.07049
0.02062
0.01961
0.01660
0.01719
0.07315
0.07481
0.01904
0.01647
0.01590
0.01348
0.06981
0.07111
0.02052
0.01585
0.01513
0.01524
0.07214
0.07222
0.02070
0.02005
0.01675
0.01745
0.07080
0.07099
0.02013
0.02096
0.01814
0.01676
0.07119
0.07095
0.01822
0.02231
0.01859
0.01523
0.07226
0.07223
0.02025
0.02047
0.01732
0.01714
0.07184
0.07192
0.02062
0.02056
0.01735
0.01745
0.07218
0.07233
0.02049
0.02015
0.01704
0.01719
0.07210
0.07212
0.02058
0.02040
0.01719
0.01743
0.07200
0.07184
0.02073
0.02034
0.01710
0.01765
0.07345
0.07419
0.01914
0.01927
0.01652
0.01554
0.07149
0.07160
0.02120
0.02002
0.01702
0.01781
0.08185
0.07819
0.02156
0.02266
0.01745
0.01652
0.10807
0.02777
0.06410
0.02529
0.08986
0.02584
0.08343
0.07921
0.01429
0.01920
0.01139
0.01518
0.13683
-0.07437
0.08308
0.02502
0.08012
0.02538
0.07611
0.07602
0.02799
0.01240
0.00929
0.02410
0.06741
0.06609
0.02458
0.02076
0.01670
0.02275
0.06713
0.06678
0.02169
0.02426
0.02022
0.01783
0.07189
0.07163
0.01785
0.02210
0.01954
0.01443
0.07460
0.07407
0.01695
0.02056
0.01755
0.01413
0.07214
0.07201
0.02092
0.01999
0.01672
0.01787
0.07257
0.07277
0.02028
0.01987
0.01668
0.01700
0.07138
0.07136
0.01986
0.02146
0.01805
0.01685
0.06961
0.06942
-0.00830
-0.00780
0.07480
-0.00338
-0.00667
0.06578
-0.00966
-0.00181
0.07490
-0.00230
-0.01037
-0.00319
-0.00581
0.07095
0.07153
-0.00517
-0.00566
0.07066
-0.00638
-0.00598
0.07170
-0.00509
-0.00580
0.07036
-0.00616
-0.00524
-0.00651
-0.00549
0.07100
0.06972
-0.00650
-0.00550
0.07053
-0.00643
-0.00607
0.07101
0.07039
-0.00643
-0.00598
-0.00617
-0.00722
-0.00611
-0.00605
0.07014
0.07048
-0.00650
-0.00664
0.07020
0.07072
-0.00626
-0.00655
0.07061
-0.00621
-0.00654
-0.00631
-0.00680
-0.00578
-0.00598
0.07115
0.07068
-0.00607
-0.00571
0.07072
-0.00606
-0.00577
0.07117
-0.00564
-0.00603
0.07099
-0.00576
-0.00564
-0.00576
-0.00604
0.06878
0.07292
-0.00457
-0.00758
0.06989
-0.00729
-0.00849
0.06711
-0.00825
-0.00405
0.07326
-0.00458
-0.00986
-0.00368
-0.00611
0.05674
0.09544
-0.01281
-0.03729
0.06116
-0.00230
-0.00680
0.05394
-0.01017
-0.00117
0.09566
-0.01249
-0.03856
-0.02751
-0.02617
0.08667
0.07299
-0.00822
-0.00456
0.08594
0.07403
-0.00861
-0.00571
-0.01810
-0.01888
0.06145
-0.00788
-0.00243
-0.00837
-0.00029
0.07100
0.07117
-0.00576
-0.00569
0.07130
-0.00554
-0.00592
0.07110
-0.00577
-0.00551
0.07100
-0.00595
-0.00567
-0.00572
-0.00560
0.07093
0.07127
-0.00560
-0.00598
0.07130
0.07096
-0.00570
-0.00549
-0.00554
-0.00579
0.07118
-0.00550
-0.00543
-0.00575
-0.00600
0.07119
0.07029
-0.00599
-0.00475
0.07047
-0.00637
-0.00614
0.07045
-0.00670
-0.00708
0.07147
-0.00545
-0.00618
-0.00488
-0.00621
0.07275
0.06998
-0.00655
-0.00453
0.06852
-0.00734
-0.00379
0.07224
-0.00552
-0.00845
0.07063
-0.00652
-0.00696
-0.00539
-0.00447
0.05475
0.05578
0.07656
0.07560
0.05655
0.05569
0.07669
0.07760
-0.01473
-0.01553
0.04829
-0.01482
-0.01559
0.04929
-0.01649
0.04971
-0.01659
0.04897
0.05796
0.05444
0.07601
0.08019
0.05509
0.05808
0.07813
0.07503
-0.01665
-0.01835
0.05033
-0.01652
-0.01936
0.04560
-0.01749
0.04916
-0.01729
0.05223
0.04805
0.05650
0.08153
0.07353
0.05283
0.07057
0.07832
0.06042
-0.02225
-0.01678
0.05007
0.00882
-0.01197
0.03423
-0.01810
0.05123
-0.03382
0.01110
0.06585
0.04606
0.07125
0.08670
0.07821
0.07167
0.08713
0.08839
0.00269
-0.01232
0.04975
-0.02356
-0.01547
0.04877
-0.04926
0.01693
-0.02523
0.06214
0.05831
0.05499
0.07592
0.08138
0.05532
0.05901
0.07832
0.07561
-0.01605
-0.01771
0.05030
-0.01685
-0.01984
0.04636
-0.01704
0.04895
-0.01755
0.05477
0.05570
0.05611
0.07692
0.07664
0.05575
0.05575
0.07687
0.07694
-0.01431
-0.01554
0.04922
-0.01596
0.04878
-0.01421
-0.01546
0.04959
-0.01581
0.04910
0.05682
0.05622
0.07698
0.07783
0.05616
0.05659
0.07744
0.07723
-0.01456
-0.01606
0.05004
-0.01469
-0.01617
0.04966
-0.01587
0.04934
-0.01601
0.04998
0.05594
0.05683
0.07781
0.07670
0.05665
0.05594
0.07699
0.07759
-0.01442
-0.01586
0.04940
-0.01433
-0.01574
0.05013
-0.01579
0.05000
-0.01571
0.04913
0.05549
0.05660
0.07760
0.07640
0.05624
0.05560
0.07673
0.07722
-0.01452
-0.01590
0.04902
-0.01598
0.04950
-0.01416
-0.01553
0.04991
-0.01560
0.04893
0.05501
0.05588
0.07712
0.07619
0.05573
0.05520
0.07599
0.07662
-0.01537
-0.01701
0.04802
-0.01447
-0.01597
0.04914
-0.01662
0.04928
-0.01584
0.04869
0.05671
0.05324
0.07393
0.07785
0.05308
0.05728
0.07720
0.07385
-0.01482
-0.01552
0.04991
-0.01790
0.04538
-0.01654
-0.01725
0.04725
-0.01887
0.05014
0.05612
0.05665
0.07740
0.07673
0.05665
0.05599
0.07713
0.07767
-0.01498
-0.01644
0.04970
-0.01627
0.04988
-0.01498
-0.01642
0.05009
-0.01627
0.04911
0.05612
0.05556
0.07646
0.07714
0.05572
0.05633
0.07728
0.07666
-0.01495
-0.01638
0.04938
-0.01453
-0.01598
0.04896
-0.01633
0.04911
-0.01589
0.04970
0.05507
0.05588
0.07666
0.07593
0.05629
0.05459
0.07534
0.07753
-0.01561
-0.01676
0.04855
-0.01604
-0.01729
0.04927
-0.01710
0.04940
-0.01841
0.04694
0.05492
0.05445
0.07571
0.07605
0.05374
0.05561
0.07540
0.07337
-0.01538
-0.01676
0.04814
-0.01687
0.04732
-0.01607
-0.01697
0.04782
-0.01860
0.04827
0.05667
0.05623
0.07693
0.07743
0.05617
0.05663
0.07766
0.07725
-0.01524
-0.01675
0.05010
-0.01648
0.04934
-0.01519
-0.01668
0.04972
-0.01647
0.04986
0.05529
0.05596
0.07711
0.07631
0.05560
0.05444
0.07530
0.07632
-0.01450
-0.01610
0.04857
-0.01561
0.04916
-0.01385
-0.01558
0.04908
-0.01484
0.04792
0.05657
0.05601
0.07681
0.07751
0.05595
0.05651
0.07743
0.07701
-0.01449
-0.01593
0.04988
-0.01583
0.04916
-0.01454
-0.01597
0.04944
-0.01590
0.04985
0.05633
0.05643
0.07743
0.07728
0.05643
0.05645
0.07737
0.07729
-0.01471
-0.01615
0.04967
-0.01475
-0.01619
0.04965
-0.01606
0.04980
-0.01610
0.04985
0.05684
0.05580
0.07659
0.07752
0.05535
0.05710
0.07850
0.07646
-0.01510
-0.01630
0.05055
-0.01486
-0.01609
0.04923
-0.01676
0.04840
-0.01644
0.05016
0.04862
0.04935
0.07600
0.07744
0.04921
0.07134
0.07622
0.05592
-0.02031
-0.01577
0.04930
-0.01580
0.04747
0.00734
-0.01623
0.02500
-0.03585
0.01439
0.05788
0.04541
0.07345
0.08239
0.07368
0.06855
0.08472
0.08711
0.00718
-0.01368
0.03629
-0.02343
-0.01541
0.04873
-0.04617
0.01073
-0.02517
0.06013
0.05919
0.05463
0.07596
0.08121
0.05444
0.06029
0.08008
0.07411
-0.01695
-0.01866
0.05170
-0.01771
0.04853
-0.01689
-0.02010
0.04548
-0.01718
0.05528
-0.09106
-0.09747
0.06440
0.15803
0.00381
-0.06529
-0.07714
0.11218
0.09638
0.00602
0.07753
0.19066
0.05033
0.05788
0.08052
0.07121
0.05600
0.05272
0.07408
0.07689
-0.00955
-0.00973
0.04371
-0.01251
0.04957
-0.01169
-0.01249
0.05010
-0.01381
0.04587
0.04921
0.06064
0.08277
0.07053
0.05825
0.05134
0.07215
0.07944
-0.01036
-0.01141
0.04231
-0.01251
0.05129
-0.01351
-0.01476
0.05284
-0.01506
0.04518
0.05625
0.05642
0.07736
0.07718
0.05645
0.05625
0.07716
0.07739
-0.01442
-0.01583
0.04955
-0.01582
0.04977
-0.01447
-0.01586
0.04973
-0.01588
0.04956
0.05659
0.05673
0.07762
0.07748
0.05673
0.05638
0.07729
0.07768
-0.01514
-0.01645
0.04992
-0.01658
0.05008
-0.01515
-0.01648
0.05015
-0.01656
0.04965
0.05617
0.05587
0.07697
0.07724
0.05583
0.05590
0.07669
0.07662
-0.01405
-0.01559
0.04940
-0.01527
0.04934
-0.01394
-0.01548
0.04907
-0.01515
0.04939
0.05762
0.05570
0.07669
0.07813
0.05593
0.05753
0.07891
0.07670
-0.01668
-0.01784
0.05149
-0.01834
0.04939
-0.01536
-0.01659
0.04900
-0.01693
0.05052
-0.01591
-0.01971
-0.01587
-0.01910
0.08467
0.08402
-0.02060
-0.01869
0.08975
-0.01373
-0.01270
0.07998
-0.01698
-0.02130
0.09241
-0.01785
-0.01665
-0.01795
-0.01710
0.08514
0.08598
-0.01658
-0.01736
0.08512
-0.01747
-0.01713
0.08618
-0.01696
-0.01672
0.08486
-0.01823
-0.01751
-0.01801
-0.01668
0.08570
0.08253
-0.01726
-0.01763
0.08552
-0.01849
-0.01805
-0.01733
-0.01758
0.08589
0.08477
-0.01778
-0.01798
-0.01709
-0.01804
0.08420
0.08506
-0.01762
-0.01783
-0.01727
-0.01795
0.08486
0.08560
-0.01840
-0.01801
0.08433
-0.01752
-0.01744
-0.01709
-0.01716
0.08558
0.08505
-0.01704
-0.01735
0.08477
-0.01720
-0.01741
0.08582
-0.01744
-0.01717
0.08570
-0.01848
-0.01646
-0.01916
-0.01920
0.08361
0.08577
-0.01558
-0.01996
0.08447
-0.01677
-0.01517
0.08334
-0.01763
-0.02125
0.09056
-0.01540
-0.02173
0.02259
-0.09522
0.08562
0.03486
-0.02107
-0.01824
0.08344
-0.02175
-0.01341
0.08224
0.02394
-0.09007
0.01963
0.00511
-0.04156
-0.02402
-0.01127
0.04470
0.09229
0.00286
-0.04395
-0.02407
-0.01335
0.04754
0.09317
-0.01328
-0.01565
0.07997
-0.01701
-0.01733
-0.01717
-0.01706
0.08564
0.08565
-0.01733
-0.01752
0.08603
-0.01753
-0.01698
0.08570
-0.01706
-0.01708
0.08545
-0.01698
-0.01703
-0.01691
-0.01754
0.08543
0.08594
-0.01724
-0.01710
-0.01725
-0.01689
0.08572
0.08549
-0.01757
-0.01679
0.08571
-0.01797
-0.01727
-0.01839
-0.01512
0.08564
0.08311
-0.01686
-0.01775
0.08559
-0.01572
-0.01881
0.08512
-0.01773
-0.01768
0.08617
-0.01831
-0.01835
-0.01784
-0.01625
0.08753
0.08491
-0.01758
-0.01454
0.08116
-0.01650
-0.01978
0.08762
-0.01613
-0.01830
0.08494
0.04825
0.04725
0.04839
0.04770
0.04815
0.04822
0.05126
0.04362
0.04866
0.09322
-0.02847
0.00200
0.05688
0.04838
0.04343
0.04794
0.04849
0.04863
0.04875
0.04847
0.04823
0.04775
0.04884
0.04865
0.04840
0.04640
0.04658
0.04763
0.04794
0.04887
0.04796
0.04804
0.04729
0.04851
0.04779
0.04856
0.04609
0.04769
0.04703
0.04687
0.04760
0.04980
0.04858
0.04825
0.04844
0.04871
0.04825
0.04805
0.10643
-0.03663
-0.01945
0.05625
0.04931
0.04211
0.04436
0.04836
0.05084
0.04828
0.04903
0.04775
-0.09158
-0.07597
-0.12516
0.16121
0.10786
-0.04659
-0.11698
-0.03858
-0.07033
0.01278
0.05807
-0.00885
-0.08458
-0.03152
-0.00663
-0.15489
0.03287
-0.09184
0.11074
-0.10118
-0.09699
0.09138
0.20537
0.09082
-0.00878
0.16358
0.17253
0.11526
-0.07657
0.04678
0.13459
-0.05251
0.06930
0.00845
0.21244
-0.13323
0.03082
0.04942
0.04228
0.05624
0.09370
-0.15947
-0.01769
-0.14242
-0.11996
0.14919
0.14934
0.15467
0.21204
0.05243
-0.12751
-0.14517
-0.13144
0.05543
-0.00068
0.06780
-0.06862
-0.14700
-0.09343
0.02556
0.02600
-0.11327
-0.03466
0.00422
-0.12068
0.06752
0.15017
0.02763
0.07036
-0.00250
0.15934
-0.09468
0.11210
0.05022
-0.01076
0.01290
0.15578
0.12023
0.07669
-0.09333
0.06868
-0.01672
0.06984
-0.03131
-0.01327
-0.06784
-0.02154
0.01566
-0.04959
-0.03359
-0.07193
-0.10556
-0.11364
0.02958
0.06140
-0.10687
0.07872
-0.09206
0.02376
0.01724
0.02073
0.05599
-0.06620
-0.11101
0.07711
0.07146
-0.07875
0.06149
-0.01390
-0.09837
0.43745
-0.03169
0.02325
0.01458
-0.05539
0.02868
0.06397
-0.05975
0.01984
0.07821
-0.02316
0.06018
-0.08434
-0.11363
0.16462
-0.08010
0.16237
-0.07704
-0.05798
0.28629
0.06032
-0.12839
-0.06853
0.02294
-0.00149
-0.14488
-0.11983
0.23321
-0.07414
-0.09671
-0.04014
-0.00531
0.01457
0.07044
-0.14259
0.06872
0.19040
0.10274
-0.06136
0.55717
-0.05321
0.12787
-0.00151
0.01985
-0.05795
0.06527
-0.00249
0.08151
-0.11327
0.05343
-0.02115
-0.10163
-0.12101
0.00204
0.26242
0.19401
-0.06324
0.16758
-0.05806
0.03635
0.01841
0.06586
0.04698
0.43152
0.09770
0.23004
-0.04246
-0.21739
0.04546
0.09233
-0.13984
-0.01728
0.07832
0.06211
0.28768
0.28651
-0.01365
0.23497
-0.15890
-0.09011
0.02308
-0.02813
0.22858
0.25156
0.16972
0.09881
-0.03571
0.03400
-0.00621
0.17715
0.06850
0.07638
-0.01522
-0.17233
-0.22706
0.22680
0.16648
0.20985
0.04518
0.19130
-0.15194
-0.18579
0.01878
-0.03351
-0.03607
0.01019
-0.11266
0.03016
0.31378
0.07868
-0.16841
0.11623
-0.06310
0.04141
0.22987
-0.07574
0.18772
0.07896
0.05708
0.06590
0.08763
0.01584
-0.08386
0.28842
-0.03211
-0.10684
0.31207
-0.15659
-0.05718
0.05960
-0.05967
0.41344
-0.02471
-0.03585
0.06711
-0.01751
-0.07422
0.19207
-0.17047
0.04232
-0.12052
-0.14037
-0.12052
-0.14892
-0.13600
-0.02766
-0.03346
-0.19580
0.31342
0.06841
-0.02849
-0.01723
-0.04318
-0.12410
0.04095
-0.12626
-0.11011
0.03314
-0.12886
0.03352
0.05669
-0.10660
0.06609
-0.01525
-0.21208
-0.01073
-0.19796
-0.02903
-0.15199
-0.09339
-0.17173
-0.08832
-0.12829
-0.12549
-0.13915
-0.15181
-0.23501
0.00137
-0.24978
0.01072
0.10000
