# vtk DataFile Version 3.0
Point representing Sub_cellular elem model
ASCII

DATASET UNSTRUCTURED_GRID
POINTS 745 float
0.00656 1.71675 0.62518 
0.00555 1.73035 -1.52943 
1.74747 1.06587 -0.45425 
1.74729 -1.08831 -0.45571 
0.00533 -1.75263 -1.53020 
0.00819 -1.74560 0.62363 
1.09695 -0.00966 1.29446 
-1.05222 -0.01792 1.31131 
1.08302 -0.01072 -2.19436 
-1.07024 -0.01117 -2.19579 
-1.73215 1.06073 -0.45205 
-1.73268 -1.08636 -0.45184 
0.00483 2.03720 -0.45184 
1.03014 1.64611 0.18125 
0.64175 1.00689 1.21775 
-0.61395 0.99465 1.22820 
-1.01521 1.63791 0.18390 
1.03173 1.64978 -1.08718 
0.64077 1.01583 -2.11357 
-0.62833 1.01546 -2.11453 
-1.02068 1.64750 -1.08728 
2.05979 -0.01115 -0.45597 
1.66871 0.62375 0.56894 
1.66725 0.62383 -1.47980 
1.03145 -1.67208 -1.08867 
1.03086 -1.66996 0.17925 
1.66967 -0.64639 0.56766 
1.66716 -0.64571 -1.48049 
0.00478 -2.06110 -0.45315 
0.64054 -1.03740 -2.11416 
-0.62832 -1.03748 -2.11464 
-1.02067 -1.67111 -1.08754 
0.64841 -1.03243 1.21698 
-0.61533 -1.03488 1.21882 
-1.01648 -1.66594 0.18316 
0.03690 0.60672 2.07341 
-1.63964 0.61543 0.57667 
-1.64184 -0.64313 0.57654 
0.00669 -0.01071 -2.50574 
-1.65513 0.62236 -1.48056 
-1.65495 -0.64603 -1.48041 
-2.04279 -0.01281 -0.45233 
0.00523 1.95135 0.11993 
0.52763 1.75189 0.44275 
0.32987 1.42394 0.96885 
-0.31223 1.41900 0.97108 
-0.51439 1.74623 0.44425 
0.00507 1.95906 -1.02394 
0.52898 1.76055 -1.34776 
0.32959 1.43743 -1.87158 
-0.31774 1.43715 -1.87201 
-0.51815 1.75962 -1.34812 
1.45293 1.40699 -0.13036 
1.45354 1.40781 -0.77692 
1.97833 0.56094 -0.45523 
1.77791 0.88433 0.06799 
1.77794 0.88462 -0.97740 
1.97821 -0.58328 -0.45608 
1.45330 -1.43016 -0.77852 
1.45294 -1.42982 -0.13225 
1.77802 -0.90700 0.06652 
1.77779 -0.90677 -0.97849 
0.52870 -1.78280 -1.34893 
0.00489 -1.98191 -1.02498 
0.32933 -1.45928 -1.87231 
-0.31786 -1.45920 -1.87240 
-0.51822 -1.78238 -1.34864 
0.52927 -1.77801 0.44077 
0.00562 -1.97726 0.11843 
0.33509 -1.45403 0.96641 
-0.31015 -1.45255 0.96799 
-0.51446 -1.77534 0.44300 
0.91509 0.51477 1.32515 
1.43211 0.31326 0.99037 
1.43405 -0.33470 0.98931 
0.92155 -0.53730 1.32252 
0.59704 -0.00985 1.56655 
-0.87392 0.50063 1.34517 
-0.87493 -0.53994 1.33759 
-0.55017 -0.03446 1.58575 
-1.39385 0.30563 1.00325 
-1.39537 -0.33483 1.00215 
0.90159 0.51293 -2.22432 
1.42513 0.31290 -1.90109 
1.42507 -0.33452 -1.90138 
0.90147 -0.53436 -2.22466 
0.57808 -0.01066 -2.42430 
-0.88885 0.51250 -2.22568 
-0.88878 -0.53466 -2.22567 
-0.56489 -0.01089 -2.42522 
-1.41281 0.31211 -1.90256 
-1.41271 -0.33504 -1.90251 
-1.43708 1.39974 -0.12754 
-1.44108 1.40396 -0.77600 
-1.75712 0.87710 0.07241 
-1.76501 0.88177 -0.97670 
-1.96171 0.55703 -0.45226 
-1.44123 -1.42864 -0.77603 
-1.43822 -1.42630 -0.12763 
-1.75858 -0.90391 0.07261 
-1.76496 -0.90632 -0.97651 
-1.96206 -0.58266 -0.45209 
0.56050 1.93571 -0.14658 
-0.54973 1.93187 -0.14578 
0.56115 1.93870 -0.75793 
-0.55093 1.93665 -0.75777 
0.90445 1.37739 0.75345 
1.05533 1.75020 -0.45282 
1.39979 1.19361 0.44542 
0.01101 1.02592 1.32817 
1.21388 0.88831 0.93990 
0.32049 0.53092 1.55796 
-0.88382 1.36657 0.75851 
-0.28509 0.51417 1.57706 
-1.18257 0.87591 0.95032 
-1.04346 1.74541 -0.45165 
-1.37744 1.18302 0.45084 
0.90643 1.38424 -1.65884 
1.40087 1.19552 -1.35352 
0.00634 1.04021 -2.21565 
1.21239 0.88990 -1.84767 
0.31220 0.54584 -2.40408 
-0.89490 1.38327 -1.65973 
-0.29904 0.54571 -2.40462 
-1.20036 0.88901 -1.84903 
-1.38923 1.19366 -1.35409 
1.95887 0.29483 0.09929 
1.95800 0.29483 -1.01096 
1.95890 -0.31724 0.09875 
1.95795 -0.31693 -1.01135 
1.77250 -0.01102 0.59151 
1.76909 -0.01092 -1.50467 
1.05519 -1.77300 -0.45467 
1.40066 -1.21755 -1.35472 
0.56094 -1.96151 -0.75948 
0.90616 -1.40615 -1.65990 
1.40096 -1.21714 0.44356 
0.56071 -1.95958 -0.14843 
0.90761 -1.40284 0.75197 
1.21740 -0.91219 0.93832 
1.21221 -0.91160 -1.84843 
-0.55105 -1.96048 -0.75850 
-0.54998 -1.95768 -0.14673 
0.00619 -1.06184 -2.21599 
0.31209 -0.56724 -2.40430 
-0.89481 -1.40594 -1.65987 
-0.29908 -0.56734 -2.40471 
-1.20020 -0.91177 -1.84896 
-1.04388 -1.77066 -0.45209 
-1.38904 -1.21720 -1.35403 
0.02228 -1.06340 1.32008 
0.32842 -0.54638 1.55574 
-0.88609 -1.39867 0.75615 
-0.27491 -0.58023 1.54811 
-1.18626 -0.90735 0.94767 
-1.38010 -1.21178 0.45038 
-1.74143 -0.01352 0.60056 
-1.93578 0.29071 0.10507 
-1.93641 -0.31720 0.10518 
-1.75670 -0.01188 -1.50516 
-1.94449 0.29294 -1.00996 
-1.94446 -0.31759 -1.00986 
0.00576 1.85037 0.38365 
0.26611 1.75093 0.54468 
0.16771 1.58704 0.80657 
-0.15275 1.58486 0.80726 
-0.25326 1.74787 0.54543 
0.00530 1.86139 -1.28790 
0.26650 1.76228 -1.44926 
0.16708 1.60128 -1.71047 
-0.15560 1.60109 -1.71065 
-0.25555 1.76186 -1.44950 
1.61757 1.24652 -0.29283 
1.61777 1.24677 -0.61508 
1.87946 0.82469 -0.45472 
1.77944 0.98579 -0.19379 
1.77954 0.98601 -0.71506 
1.87930 -0.84708 -0.45592 
1.61756 -1.26916 -0.61665 
1.61743 -1.26911 -0.29452 
1.77934 -1.00835 -0.19527 
1.77936 -1.00830 -0.71635 
0.26624 -1.78454 -1.45023 
0.00510 -1.88392 -1.28881 
0.16683 -1.62332 -1.71122 
-0.15578 -1.62324 -1.71123 
-0.25570 -1.78434 -1.45015 
0.26787 -1.77848 0.54282 
0.00665 -1.87768 0.38212 
0.17079 -1.61676 0.80457 
-0.15076 -1.61578 0.80544 
-0.25243 -1.77700 0.54406 
1.02320 0.25097 1.32430 
1.27614 0.15033 1.15685 
1.27837 -0.17017 1.15565 
1.02914 -0.27094 1.32128 
0.85953 -0.00929 1.43962 
-0.97703 0.23985 1.34516 
-0.97716 -0.27767 1.34118 
-0.81261 -0.02275 1.45850 
-1.23342 0.14343 1.17286 
-1.23402 -0.17497 1.17158 
1.00302 0.25034 -2.22612 
1.26400 0.15060 -2.06500 
1.26397 -0.17212 -2.06513 
1.00296 -0.27175 -2.22631 
0.84172 -0.01068 -2.32582 
-0.99022 0.24989 -2.22757 
-0.99017 -0.27215 -2.22756 
-0.82873 -0.01103 -2.32706 
-1.25145 0.15001 -2.06652 
-1.25140 -0.17262 -2.06651 
-1.60184 1.24035 -0.29028 
-1.60404 1.24223 -0.61349 
-1.76178 0.97956 -0.19062 
-1.76563 0.98210 -0.71354 
-1.86344 0.81998 -0.45215 
-1.60436 -1.26742 -0.61341 
-1.60267 -1.26638 -0.29020 
-1.76274 -1.00579 -0.19041 
-1.76580 -1.00716 -0.71334 
-1.86390 -0.84561 -0.45193 
0.00493 2.01455 -0.16139 
0.00490 2.01849 -0.74239 
0.28916 2.01135 -0.30348 
-0.27925 2.00960 -0.30320 
0.28935 2.01310 -0.60051 
-0.27952 2.01182 -0.60037 
0.78505 1.71685 0.32043 
1.25517 1.54176 0.02934 
0.80924 1.81291 0.01765 
0.98513 1.52733 0.47782 
1.04962 1.72311 -0.13111 
1.22566 1.43806 0.32864 
0.49041 1.22978 1.10658 
0.78638 0.77022 1.28891 
0.78777 1.20302 1.00172 
0.33408 1.02592 1.29671 
0.93886 0.96753 1.09226 
0.48092 0.78445 1.40115 
-0.46863 1.22130 1.11198 
-0.75099 0.75494 1.30577 
-0.30984 1.01795 1.30339 
-0.76363 1.19153 1.00898 
-0.44948 0.77048 1.41573 
-0.90837 0.95409 1.10376 
-0.77100 1.70942 0.32260 
-1.23958 1.53371 0.03222 
-0.79685 1.80684 0.01923 
-0.96764 1.51761 0.48146 
-1.03655 1.71665 -0.12924 
-1.20728 1.42820 0.33264 
0.78676 1.72283 -1.22589 
1.25631 1.54367 -0.93595 
0.81042 1.81656 -0.92284 
1.05049 1.72498 -0.77461 
0.98718 1.53271 -1.38384 
1.22730 1.44107 -1.23556 
0.48917 1.24037 -2.00747 
0.77968 0.77080 -2.18658 
0.78883 1.21104 -1.90453 
0.32821 1.03498 -2.18941 
0.93740 0.97092 -1.99618 
0.47676 0.79486 -2.28095 
-0.47699 1.24003 -2.00817 
-0.76705 0.77040 -2.18779 
-0.31560 1.03481 -2.18994 
-0.77685 1.21043 -1.90555 
-0.46391 0.79464 -2.28174 
-0.92518 0.97031 -1.99744 
-0.77592 1.72127 -1.22621 
-1.24474 1.54061 -0.93562 
-0.79976 1.81422 -0.92276 
-1.03924 1.72160 -0.77411 
-0.97599 1.53120 -1.38442 
-1.21594 1.43899 -1.23590 
2.03927 0.27946 -0.45567 
2.03921 -0.30177 -0.45611 
2.03431 0.13745 -0.17184 
2.03388 0.13749 -0.73994 
2.03429 -0.15981 -0.17208 
2.03385 -0.15969 -0.74015 
1.74069 0.76247 0.32489 
1.56461 0.47249 0.79285 
1.54979 0.91974 0.52525 
1.45966 0.77153 0.76482 
1.83602 0.45969 0.34789 
1.74581 0.31133 0.58688 
1.74029 0.76271 -1.23501 
1.56109 0.47232 -1.70414 
1.54971 0.92054 -1.43470 
1.45813 0.77207 -1.67465 
1.83476 0.45962 -1.25934 
1.74306 0.31112 -1.49918 
1.25604 -1.56600 -0.93753 
0.78647 -1.74510 -1.22724 
1.05023 -1.74749 -0.77629 
1.22705 -1.46322 -1.23693 
0.81015 -1.83906 -0.92439 
0.98690 -1.55481 -1.38512 
1.25547 -1.56499 0.02735 
0.78628 -1.74167 0.31843 
1.04977 -1.74635 -0.13309 
1.22665 -1.46183 0.32669 
0.80969 -1.83679 0.01566 
0.98684 -1.55199 0.47599 
1.74116 -0.78519 0.32349 
1.56611 -0.49475 0.79173 
1.83632 -0.48214 0.34700 
1.74632 -0.33352 0.58623 
1.55097 -0.94288 0.52358 
1.46174 -0.79465 0.76325 
1.74017 -0.78473 -1.23591 
1.56101 -0.49407 -1.70462 
1.83469 -0.48160 -1.25990 
1.74301 -0.33297 -1.49954 
1.54956 -0.94249 -1.43567 
1.45799 -0.79387 -1.67541 
0.00476 -2.04178 -0.74357 
0.00503 -2.03931 -0.16281 
0.28923 -2.03636 -0.60197 
0.28921 -2.03523 -0.30509 
-0.27963 -2.03571 -0.60138 
-0.27932 -2.03435 -0.30432 
0.48891 -1.26206 -2.00815 
0.77950 -0.79229 -2.18707 
0.78857 -1.23277 -1.90535 
0.93718 -0.99255 -1.99688 
0.32801 -1.05655 -2.18988 
0.47659 -0.81632 -2.28134 
-0.47704 -1.26205 -2.00840 
-0.76699 -0.79248 -2.18781 
-0.31568 -1.05659 -2.19015 
-0.77679 -1.23274 -1.90566 
-0.46394 -0.81644 -2.28184 
-0.92508 -0.99267 -1.99745 
-0.77593 -1.74442 -1.22660 
-1.24477 -1.56474 -0.93577 
-0.79983 -1.83795 -0.92324 
-0.97591 -1.55429 -1.38460 
-1.03939 -1.74592 -0.77446 
-1.21582 -1.46253 -1.23597 
0.49744 -1.25864 1.10438 
0.79338 -0.79513 1.28670 
0.79269 -1.22895 1.00068 
0.94404 -0.99254 1.09078 
0.34457 -1.05626 1.29275 
0.48882 -0.80756 1.40008 
-0.46772 -1.25840 1.10595 
-0.75280 -0.79484 1.29629 
-0.30535 -1.06033 1.29243 
-0.76595 -1.22672 1.00415 
-0.44796 -0.81970 1.39876 
-0.91173 -0.98915 1.09838 
-0.77184 -1.73814 0.32154 
-1.24092 -1.56096 0.03185 
-0.79749 -1.83381 0.01841 
-1.03735 -1.74314 -0.12979 
-0.96946 -1.54747 0.48026 
-1.20934 -1.45688 0.33203 
0.10872 -0.51307 1.75828 
-0.20571 -0.47978 2.11502 
0.48874 0.06311 1.82946 
0.37896 -0.43997 2.45427 
-0.35079 -0.31851 1.85413 
-0.53413 -0.03524 2.06355 
-1.53091 0.46434 0.80289 
-1.71602 0.75448 0.33081 
-1.42885 0.76093 0.77387 
-1.52363 0.90966 0.53198 
-1.71505 0.30563 0.59544 
-1.80965 0.45363 0.35462 
[...]
CELL_DATA 2227
SCALARS Strain double 
LOOKUP_TABLE default 
-0.08360
-0.09067
-0.08654
-0.08514
-0.09179
-0.08769
-0.08750
-0.08758
-0.08762
-0.08740
-0.08734
-0.08825
-0.08721
-0.08913
-0.08816
-0.08702
-0.08811
-0.08753
-0.08926
-0.08855
-0.08782
-0.08767
-0.08732
-0.08791
-0.08742
-0.09047
-0.08609
-0.08605
-0.08975
-0.08932
-0.09526
-0.08087
-0.07308
-0.09940
-0.07609
-0.10148
-0.09687
-0.06623
-0.07254
-0.07728
-0.08739
-0.08766
-0.08777
-0.08731
-0.08769
-0.08734
-0.08758
-0.08737
-0.08759
-0.08715
-0.08826
-0.08822
-0.08588
-0.08664
-0.08958
-0.08863
-0.08810
-0.08628
-0.08623
-0.08971
-0.03274
-0.03336
0.06821
0.06842
0.06879
0.06842
-0.03519
-0.03431
0.06751
0.07115
0.07005
0.06675
-0.03238
-0.04930
0.08326
0.05646
0.07876
0.09603
-0.02640
-0.04779
0.04294
0.09724
0.11345
0.06972
-0.03781
-0.03658
0.06724
0.07724
0.07433
0.06550
-0.03439
-0.03454
0.06965
0.06917
0.06914
0.06978
-0.03399
-0.03395
0.06925
0.06971
0.06958
0.06936
-0.03403
-0.03398
0.06996
0.06938
0.06940
0.07001
-0.03403
-0.03418
0.06899
0.07022
0.06973
0.06908
-0.03275
-0.03270
0.06793
0.06761
0.06731
0.06808
-0.03785
-0.03859
0.06895
0.07022
0.06951
0.07003
-0.03467
-0.03458
0.07011
0.06902
0.06874
0.07023
-0.03468
-0.03461
0.06871
0.06998
0.06988
0.06873
-0.03466
-0.03583
0.06939
0.06754
0.06818
0.07021
-0.03776
-0.03820
0.06781
0.07122
0.07039
0.06797
-0.03504
-0.03489
0.06891
0.07031
0.07024
0.06911
-0.03368
-0.03334
0.06899
0.06807
0.06813
0.06851
-0.03373
-0.03373
0.06903
0.06945
0.06954
0.06918
-0.03432
-0.03426
0.06971
0.06988
0.06986
0.06970
-0.03428
-0.03450
0.06860
0.07017
0.07050
0.06875
-0.02275
-0.04818
0.08205
0.07538
0.04269
0.09897
-0.03494
-0.04629
0.06116
0.07876
0.08447
0.07298
-0.03654
-0.03611
0.06700
0.07241
0.07330
0.06582
0.01272
0.13643
0.15650
0.29251
0.03456
-0.02736
-0.02853
0.07318
0.06048
0.06041
0.07270
-0.02918
-0.03005
0.07160
0.06183
0.06124
0.07182
-0.03402
-0.03397
0.06969
0.06950
0.06948
0.06976
-0.03407
-0.03392
0.07001
0.06927
0.06934
0.07001
-0.03332
-0.03316
0.06938
0.06906
0.06920
0.06928
-0.03671
-0.03674
0.07044
0.07124
0.07078
0.06990
-0.06243
-0.04274
0.07738
0.07788
0.03234
0.03159
-0.06812
-0.04666
0.07737
0.08426
0.03662
0.03153
-0.06544
-0.04674
0.08675
0.07299
0.03128
0.04330
-0.06225
-0.04120
0.07039
0.08899
0.04266
0.02557
-0.07020
-0.04928
0.07801
0.08719
0.03915
0.03260
-0.06558
-0.04464
0.07973
0.07957
0.03376
0.03389
-0.06564
-0.04509
0.07988
0.07958
0.03400
0.03428
-0.06558
-0.04487
0.07957
0.08012
0.03432
0.03399
-0.06563
-0.04492
0.08022
0.07964
0.03405
0.03459
-0.06542
-0.04478
0.07967
0.07969
0.03425
0.03405
-0.06535
-0.04479
0.07882
0.07868
0.03286
0.03301
-0.06626
-0.04550
0.07900
0.08024
0.03442
0.03353
-0.06484
-0.04381
0.07922
0.07798
0.03168
0.03322
-0.06787
-0.04792
0.07932
0.07976
0.03448
0.03445
-0.06623
-0.04555
0.08042
0.07858
0.03342
0.03494
-0.06465
-0.04368
0.07856
0.07821
0.03198
0.03267
-0.06621
-0.04555
0.07850
0.08032
0.03448
0.03306
-0.06555
-0.04502
0.07834
0.07911
0.03304
0.03252
-0.06797
-0.04796
0.07903
0.07991
0.03499
0.03373
-0.06667
-0.04598
0.07873
0.08051
0.03504
0.03351
-0.06596
-0.04537
0.08017
0.07930
0.03370
0.03454
-0.06563
-0.04478
0.07998
0.07904
0.03330
0.03401
-0.06528
-0.04458
0.07931
0.07988
0.03409
0.03375
-0.06593
-0.04522
0.07997
0.08004
0.03443
0.03435
-0.06551
-0.04495
0.07916
0.08005
0.03449
0.03363
-0.06836
-0.04731
0.07875
0.08033
0.03471
0.03378
-0.06416
-0.04381
0.07825
0.07739
0.03235
0.03227
-0.06294
-0.04020
0.07914
0.07565
0.02858
0.02987
-0.06994
-0.05188
0.07797
0.08367
0.03909
0.03397
-0.06756
-0.04708
0.07670
0.08284
0.03642
0.03044
-0.05346
-0.04274
0.08315
0.06265
0.02710
0.04240
-0.06926
-0.04973
0.07899
0.08047
0.03583
0.03437
-0.06701
-0.04872
0.08288
0.07254
0.02981
0.03893
-0.04624
-0.03670
0.07608
0.05912
0.02491
0.03345
-0.03198
-0.25307
0.13120
0.15500
0.02530
0.02554
-0.06897
-0.05313
0.08922
0.08843
0.04403
0.04844
-0.06536
-0.05163
0.06989
0.08922
0.05036
0.03623
-0.03089
0.14425
0.09426
0.02561
0.02569
-0.05618
-0.03709
0.08680
0.06842
0.02355
0.04012
-0.05921
-0.03927
0.08611
0.06927
0.02560
0.03921
-0.06539
-0.04475
0.07966
0.07977
0.03395
0.03412
-0.06583
-0.04530
0.07949
0.08031
0.03456
0.03367
-0.06600
-0.04554
0.08035
0.07956
0.03381
0.03467
-0.06527
-0.04457
0.07965
0.07964
0.03378
0.03406
-0.06565
-0.04492
0.07992
0.07979
0.03420
0.03435
-0.06538
-0.04476
0.07972
0.08024
0.03450
0.03405
-0.06565
-0.04504
0.08022
0.07992
0.03431
0.03460
-0.06540
-0.04476
0.07975
0.08016
0.03440
0.03410
-0.06565
-0.04497
0.08030
0.07990
0.03426
0.03468
-0.06507
-0.04429
0.07980
0.07982
0.03405
0.03405
-0.06662
-0.04652
0.08284
0.07627
0.03205
0.03878
-0.06612
-0.04522
0.08147
0.07876
0.03314
0.03493
-0.06266
-0.04067
0.07500
0.08086
0.03463
0.02885
-0.06494
-0.04455
0.07874
0.08019
0.03437
0.03319
-0.06802
-0.04750
0.08080
0.08073
0.03582
0.03483
-0.06653
-0.04560
0.08161
0.07863
0.03300
0.03537
-0.06656
-0.04642
0.08238
0.07633
0.03193
0.03737
-0.06344
-0.04184
0.07519
0.08108
0.03444
0.02903
-0.06431
-0.04381
0.07862
0.07950
0.03374
0.03302
-0.06813
-0.04758
0.08142
0.07997
0.03510
0.03561
0.07051
0.07029
0.01921
0.02183
0.01798
0.01657
0.07062
0.07031
0.01810
0.02375
0.01932
0.01521
0.07168
0.07197
0.01989
0.02046
0.01755
0.01654
0.07114
0.07133
0.02003
0.02096
0.01841
0.01666
0.07565
0.07916
0.01758
0.01775
0.01805
0.01131
0.07202
0.07178
0.01931
0.02053
0.01700
0.01636
0.06921
0.07004
0.01921
0.02110
0.01817
0.01581
0.07769
0.06875
0.03263
0.02624
0.01543
0.03349
0.07646
0.07426
0.01684
0.01924
0.01310
0.01521
0.12393
-0.16578
0.08458
0.02560
0.07511
0.02524
0.09014
0.08398
0.01240
0.01812
0.00958
0.01423
0.14406
-0.05794
0.06333
0.02569
0.10430
0.02564
0.07500
0.07587
0.03484
0.00921
0.00667
0.02965
0.07491
0.07360
0.01912
0.01919
0.01559
0.01640
0.06574
0.06385
0.02733
0.02043
0.01626
0.02687
0.07165
0.07168
0.02065
0.02049
0.01717
0.01753
0.07241
0.07252
0.01992
0.01999
0.01701
0.01680
0.07233
0.07241
0.02039
0.02041
0.01728
0.01730
0.07192
0.07174
0.02015
0.02082
0.01759
0.01688
0.07199
0.07210
0.02055
0.02052
0.01732
0.01746
0.07191
0.07201
0.02091
0.02039
0.01725
0.01771
0.07195
0.07199
0.02076
0.02064
0.01739
0.01753
0.07254
0.07254
0.02038
0.02054
0.01731
0.01726
0.07164
0.07170
0.02081
0.02075
0.01766
0.01739
0.07054
0.07104
0.01736
0.02153
0.01887
0.01356
0.07050
0.07089
0.01955
0.02143
0.01837
0.01649
0.06972
0.06990
0.01783
0.02189
0.01899
0.01434
0.07086
0.07115
0.01909
0.02150
0.01840
0.01611
0.07400
0.07439
0.01832
0.01589
0.01303
0.01439
0.07282
0.07285
0.01976
0.01999
0.01665
0.01635
0.07128
0.07148
0.02061
0.01934
0.01626
0.01705
0.07258
0.07266
0.01950
0.02001
0.01695
0.01645
0.07221
0.07191
0.02011
0.01954
0.01631
0.01709
0.07130
0.07141
0.02089
0.02031
0.01704
0.01775
0.07024
0.07132
0.01859
0.02026
0.01701
0.01492
0.07066
0.07057
0.02078
0.01928
0.01661
0.01733
0.07423
0.07736
0.02069
0.01421
0.01632
0.01346
0.07153
0.07287
0.02203
0.01502
0.01391
0.01571
0.07175
0.07186
0.02098
0.01992
0.01659
0.01778
0.07076
0.07092
0.02005
0.02105
0.01823
0.01659
0.07053
0.07004
0.01857
0.02228
0.01866
0.01546
0.07213
0.07219
0.02017
0.02076
0.01759
0.01708
0.07182
0.07192
0.02046
0.02072
0.01758
0.01735
0.07242
0.07251
0.02062
0.02003
0.01694
0.01734
0.07235
0.07232
0.02061
0.02039
0.01716
0.01740
0.07214
0.07202
0.02098
0.02028
0.01702
0.01789
0.07352
0.07417
0.01906
0.01896
0.01626
0.01560
0.07136
0.07146
0.02138
0.02020
0.01719
0.01802
0.07409
0.09167
0.00961
0.02854
0.03609
-0.00879
0.14129
0.11315
0.09168
0.02515
0.11795
0.02577
0.07840
0.07688
0.01721
0.01677
0.01083
0.01557
0.09911
-0.07046
0.07114
0.02516
0.04602
0.02523
0.07467
0.07418
0.02563
0.01209
0.00934
0.02295
0.06679
0.06535
0.02460
0.02004
0.01622
0.02236
0.06335
0.06359
0.02492
0.02443
0.02068
0.02066
0.07442
0.07363
0.01509
0.02279
0.02019
0.01195
0.07434
0.07413
0.01518
0.02212
0.01974
0.01198
0.07186
0.07180
0.02108
0.02034
0.01721
0.01803
0.07265
0.07290
0.01953
0.02079
0.01736
0.01635
0.07183
0.07203
0.01941
0.02163
0.01821
0.01631
0.06864
0.06950
-0.00816
-0.00919
0.07645
-0.00222
-0.00731
0.06400
-0.00973
0.00036
0.07698
-0.00135
-0.01247
-0.00103
-0.00557
0.07112
0.07100
-0.00587
-0.00574
0.07086
-0.00587
-0.00568
0.07133
-0.00560
-0.00587
0.07089
-0.00582
-0.00541
-0.00580
-0.00579
0.06990
0.07064
-0.00663
-0.00737
0.07153
-0.00543
-0.00646
0.07089
0.06957
-0.00792
-0.00646
-0.00552
-0.00543
-0.00656
-0.00507
0.07036
0.06968
-0.00784
-0.00696
0.06947
0.07156
-0.00548
-0.00692
0.07101
-0.00647
-0.00770
-0.00509
-0.00594
-0.00494
-0.00645
0.07136
0.07064
-0.00603
-0.00541
0.07052
-0.00630
-0.00568
0.07109
-0.00588
-0.00614
0.07119
-0.00549
-0.00557
-0.00564
-0.00618
0.07017
0.07115
-0.00478
-0.00533
0.06801
-0.00828
-0.00763
0.06757
-0.00979
-0.00862
0.07401
-0.00199
-0.00769
-0.00368
-0.00925
0.06110
0.09018
-0.01565
-0.02667
0.06411
0.00040
-0.00571
0.04832
-0.01382
0.00515
0.10731
-0.01670
-0.04579
-0.02586
-0.03535
0.09530
0.07440
-0.00933
0.00375
0.08002
0.07730
-0.00400
-0.00437
-0.02828
-0.01482
0.05712
-0.01403
0.00012
-0.01174
0.00131
0.07081
0.07112
-0.00589
-0.00586
0.07143
-0.00545
-0.00610
0.07087
-0.00597
-0.00535
0.07100
-0.00604
-0.00588
-0.00565
-0.00553
0.07098
0.07145
-0.00546
-0.00581
0.07144
0.07111
-0.00559
-0.00528
-0.00548
-0.00580
0.07113
-0.00557
-0.00525
-0.00578
-0.00580
0.07311
0.06824
-0.00724
-0.00264
0.06959
-0.00682
-0.00474
0.07171
-0.00604
-0.00927
0.07158
-0.00583
-0.00730
-0.00402
-0.00493
0.07310
0.06956
-0.00681
-0.00431
0.06804
-0.00755
-0.00333
0.07215
-0.00590
-0.00934
0.07098
-0.00639
-0.00745
-0.00463
-0.00430
0.05508
0.05455
0.07534
0.07564
0.05552
0.05568
0.07690
0.07666
-0.01385
-0.01462
0.04890
-0.01333
-0.01384
0.04811
-0.01568
0.04865
-0.01536
0.04875
0.05769
0.05367
0.07494
0.08003
0.05453
0.05620
0.07683
0.07529
-0.01525
-0.01720
0.05024
-0.01466
-0.01761
0.04553
-0.01609
0.04823
-0.01570
0.05006
0.05060
0.06110
0.08332
0.07492
0.05436
0.08148
0.08472
0.06313
-0.02364
-0.01800
0.05272
0.00030
-0.01656
0.04331
-0.01914
0.05058
-0.04637
0.02133
0.06655
0.04210
0.06685
0.09004
0.06679
0.07703
0.09450
0.08405
0.01445
-0.00591
0.04412
-0.02459
-0.01580
0.04710
-0.03832
0.00232
-0.02727
0.06727
0.06134
0.05354
0.07517
0.08498
0.05387
0.06254
0.08122
0.07321
-0.01718
-0.01908
0.05281
-0.01752
-0.02121
0.04384
-0.01785
0.04809
-0.01759
0.05900
0.05608
0.05650
0.07734
0.07695
0.05651
0.05582
0.07671
0.07760
-0.01516
-0.01640
0.04955
-0.01672
0.04962
-0.01485
-0.01611
0.04992
-0.01640
0.04918
0.05645
0.05614
0.07698
0.07752
0.05607
0.05639
0.07720
0.07713
-0.01440
-0.01585
0.04963
-0.01453
-0.01597
0.04957
-0.01575
0.04930
-0.01589
0.04984
0.05620
0.05680
0.07770
0.07709
0.05672
0.05619
0.07714
0.07771
-0.01452
-0.01598
0.04957
-0.01454
-0.01598
0.05014
-0.01585
0.04999
-0.01588
0.04954
0.05665
0.05608
0.07695
0.07725
0.05552
0.05680
0.07840
0.07654
-0.01495
-0.01618
0.05058
-0.01660
0.04862
-0.01435
-0.01568
0.04945
-0.01587
0.04979
0.05385
0.05511
0.07614
0.07529
0.05434
0.05458
0.07547
0.07565
-0.01308
-0.01468
0.04677
-0.01334
-0.01484
0.04858
-0.01454
0.04746
-0.01477
0.04815
0.05683
0.05666
0.07662
0.07723
0.05631
0.05634
0.07783
0.07796
-0.01804
-0.01863
0.05091
-0.02063
0.04757
-0.01924
-0.01971
0.05104
-0.02168
0.04819
0.05570
0.05709
0.07788
0.07626
0.05682
0.05569
0.07685
0.07785
-0.01508
-0.01655
0.04927
-0.01639
0.05008
-0.01521
-0.01670
0.05054
-0.01648
0.04875
0.05666
0.05537
0.07621
0.07774
0.05569
0.05674
0.07761
0.07660
-0.01536
-0.01682
0.04978
-0.01499
-0.01646
0.04880
-0.01669
0.04910
-0.01631
0.05013
0.05482
0.05553
0.07629
0.07582
0.05655
0.05528
0.07605
0.07790
-0.01542
-0.01616
0.04839
-0.01552
-0.01626
0.04908
-0.01739
0.04952
-0.01925
0.04700
0.05747
0.05553
0.07615
0.07756
0.05357
0.05848
0.07966
0.07400
-0.01837
-0.01929
0.05147
-0.01989
0.04654
-0.01861
-0.01907
0.04934
-0.02138
0.04953
0.05718
0.05579
0.07643
0.07799
0.05585
0.05694
0.07792
0.07693
-0.01555
-0.01711
0.05060
-0.01675
0.04899
-0.01542
-0.01694
0.04929
-0.01665
0.05023
0.05515
0.05582
0.07713
0.07618
0.05521
0.05463
0.07560
0.07558
-0.01435
-0.01600
0.04842
-0.01544
0.04907
-0.01372
-0.01547
0.04877
-0.01472
0.04804
0.05627
0.05593
0.07673
0.07731
0.05587
0.05628
0.07713
0.07698
-0.01418
-0.01559
0.04951
-0.01556
0.04905
-0.01427
-0.01567
0.04938
-0.01568
0.04969
0.05662
0.05651
0.07744
0.07755
0.05649
0.05672
0.07763
0.07740
-0.01477
-0.01624
0.04995
-0.01484
-0.01630
0.04979
-0.01611
0.04980
-0.01616
0.05010
0.05693
0.05568
0.07647
0.07766
0.05525
0.05725
0.07863
0.07630
-0.01514
-0.01630
0.05063
-0.01472
-0.01596
0.04912
-0.01684
0.04835
-0.01631
0.05033
0.04361
0.04891
0.07617
0.07154
0.05020
0.07976
0.07893
0.05548
-0.02121
-0.01253
0.04995
-0.01530
0.04808
0.01889
-0.00536
0.02260
-0.05256
-0.00645
0.05185
0.05148
0.08223
0.07849
0.07091
0.06128
0.07474
0.08490
-0.00646
-0.02759
0.02896
-0.02312
-0.01927
0.04919
-0.03713
0.03430
-0.02445
0.05577
0.05879
0.05302
0.07439
0.08020
0.05385
0.05999
0.08011
0.07354
-0.01669
-0.01810
0.05162
-0.01773
0.04794
-0.01666
-0.01870
0.04463
-0.01746
0.05430
0.06379
-0.14981
-0.02539
0.13636
0.13986
-0.10892
-0.12999
0.14164
0.01200
-0.09668
-0.03844
0.22187
0.04579
0.06102
0.08299
0.06668
0.05811
0.04907
0.07028
0.07915
-0.00612
-0.00604
0.03940
-0.00942
0.05113
-0.01039
-0.01120
0.05309
-0.01250
0.04256
0.04763
0.05970
0.08112
0.06766
0.05727
0.04958
0.07103
0.07888
-0.00950
-0.01054
0.04171
-0.01176
0.05008
-0.01104
-0.01165
0.05260
-0.01327
0.04278
0.05632
0.05652
0.07738
0.07722
0.05652
0.05627
0.07721
0.07754
-0.01445
-0.01591
0.04965
-0.01579
0.04977
-0.01452
-0.01597
0.04991
-0.01586
0.04955
0.05629
0.05684
0.07776
0.07725
0.05671
0.05582
0.07664
0.07767
-0.01453
-0.01602
0.04956
-0.01575
0.05009
-0.01456
-0.01605
0.05026
-0.01577
0.04918
0.05608
0.05614
0.07718
0.07713
0.05606
0.05565
0.07646
0.07693
-0.01383
-0.01535
0.04930
-0.01507
0.04954
-0.01375
-0.01529
0.04947
-0.01496
0.04909
0.05798
0.05684
0.07826
0.07836
0.05719
0.05770
0.07899
0.07752
-0.01846
-0.01984
0.05181
-0.01987
0.05121
-0.01626
-0.01762
0.04980
-0.01769
0.05068
-0.01492
-0.01905
-0.01389
-0.02058
0.08350
0.08373
-0.01944
-0.01970
0.09016
-0.01442
-0.00928
0.07782
-0.01704
-0.02321
0.09632
-0.01716
-0.01745
-0.01699
-0.01727
0.08551
0.08516
-0.01717
-0.01710
0.08527
-0.01722
-0.01725
0.08596
-0.01722
-0.01685
0.08545
-0.01701
-0.01805
-0.01687
-0.01926
0.08504
0.08402
-0.01777
-0.01781
0.08608
-0.01632
-0.02009
-0.01625
-0.01796
0.08489
0.08413
-0.01605
-0.01990
-0.01614
-0.01842
0.08404
0.08439
-0.01803
-0.01706
-0.01774
-0.01824
0.08453
0.08620
-0.01730
-0.01961
0.08480
-0.01782
-0.01737
-0.01742
-0.01682
0.08578
0.08498
-0.01694
-0.01730
0.08465
-0.01689
-0.01751
0.08572
-0.01757
-0.01706
0.08591
-0.01912
-0.01635
-0.02099
-0.01575
0.08409
0.08613
-0.01552
-0.01923
0.08330
-0.01138
-0.02355
0.08541
-0.02206
-0.01889
0.08843
-0.01559
-0.02367
0.02237
-0.07584
0.08886
0.02091
-0.02417
-0.02053
0.08850
-0.02458
-0.01181
0.08437
0.04223
-0.11015
-0.00217
-0.00214
-0.05945
-0.02721
-0.00673
0.06915
0.09227
-0.00387
-0.02785
-0.02420
-0.01253
0.04347
0.09074
-0.01173
-0.01219
0.07574
-0.01692
-0.01747
-0.01707
-0.01719
0.08537
0.08560
-0.01754
-0.01774
0.08625
-0.01767
-0.01677
0.08537
-0.01691
-0.01724
0.08545
-0.01698
-0.01695
-0.01703
-0.01726
0.08551
0.08609
-0.01726
-0.01704
-0.01730
-0.01665
0.08593
0.08564
-0.01728
-0.01661
0.08556
-0.01852
-0.01816
-0.01800
-0.01250
0.08791
0.07978
-0.01722
-0.01667
0.08491
-0.01456
-0.02096
0.08713
-0.01671
-0.01879
0.08626
-0.01845
-0.01853
-0.01772
-0.01606
0.08766
0.08470
-0.01802
-0.01393
0.08046
-0.01529
-0.02101
0.08748
-0.01594
-0.01892
0.08545
0.04719
0.04805
0.04853
0.04723
0.04710
0.05023
0.04937
0.04468
0.05055
0.09569
-0.00709
-0.02085
0.06168
0.04877
0.03976
0.04797
0.04874
0.04820
0.04867
0.04841
0.04836
0.04836
0.04887
0.04824
0.04629
0.04527
0.05032
0.04719
0.04752
0.04935
0.04800
0.04822
0.04715
0.04892
0.04765
0.04814
0.04640
0.04781
0.04841
0.04691
0.04712
0.04984
0.04849
0.04822
0.04868
0.04893
0.04842
0.04795
0.11059
-0.05428
-0.01328
0.05398
0.04844
0.04168
0.04145
0.05080
0.05098
0.04790
0.04917
0.04831
-0.03978
0.02049
0.04844
0.13316
0.23474
0.12313
-0.13444
-0.01821
-0.04606
0.03452
0.19745
-0.02381
-0.13388
-0.01088
-0.03428
-0.11795
0.03697
-0.07011
0.09563
-0.17319
-0.00176
0.17868
0.20436
0.00877
-0.06460
0.13506
0.23158
0.09542
-0.12430
-0.01448
0.12489
-0.05610
0.05003
-0.14698
0.12645
-0.00152
-0.00931
0.11722
0.06629
-0.01802
-0.10469
-0.22275
-0.09146
-0.00471
-0.08044
0.03161
-0.02953
0.01276
0.07611
0.04377
-0.02059
-0.08202
-0.16773
-0.03650
0.00150
-0.06427
-0.06048
-0.12368
-0.10228
0.00795
0.11963
-0.04831
0.04635
0.01770
-0.15898
0.09345
0.09167
0.00711
0.04226
0.03908
0.16664
-0.04660
0.07673
-0.02622
0.00081
0.03043
0.24701
0.04739
0.06421
-0.01655
-0.00440
0.01980
0.03110
-0.02270
-0.03544
-0.02357
-0.07893
-0.06035
-0.08701
-0.04809
0.01184
-0.13909
-0.04568
-0.00454
0.13806
0.01826
0.04935
-0.00999
0.07665
0.04683
-0.15114
0.21173
-0.02337
-0.02656
-0.01246
0.12162
0.00389
0.04286
0.05143
-0.09931
0.00379
-0.10509
0.05008
-0.00702
0.01449
0.04458
0.13818
-0.03247
-0.01940
-0.09806
-0.02239
0.05580
-0.02680
-0.04755
0.23051
-0.09306
0.14124
-0.02461
0.05981
0.19884
0.13066
-0.05933
-0.16061
0.16162
0.04397
-0.12819
-0.03355
0.01992
0.00287
0.04422
0.02874
-0.02256
0.05193
0.02866
-0.15478
0.11614
0.08563
0.40966
-0.05756
0.15410
-0.07053
0.12328
-0.01494
-0.04548
-0.00026
-0.08272
0.11854
-0.04518
-0.09604
0.22170
-0.11634
0.00623
-0.11606
0.08233
0.29601
0.09910
0.04341
0.17249
0.01026
-0.03637
0.28351
0.05387
0.18593
-0.03112
-0.04005
0.07127
-0.02732
0.01472
0.09707
-0.15633
-0.01869
0.03107
-0.02031
0.10990
-0.08200
0.05342
0.05614
0.10178
-0.05616
-0.13785
0.04920
-0.02757
0.27157
0.06478
0.03178
-0.05434
0.06080
-0.10981
0.10463
-0.10487
0.18641
-0.10831
0.00824
0.06118
0.20706
-0.04210
0.24334
0.06856
0.01078
-0.14891
-0.19017
0.05611
0.04777
-0.10406
-0.00029
-0.09983
-0.04110
0.17935
-0.02338
-0.08084
0.02753
-0.09194
0.11276
-0.02022
0.41976
0.14836
0.08414
0.28304
-0.00167
0.20467
-0.02670
0.28021
0.15699
0.07864
-0.18382
-0.15483
0.13853
-0.02278
-0.07649
0.02161
0.15560
0.26888
-0.11717
-0.06714
0.16397
-0.03156
-0.05222
-0.01659
0.06893
-0.01825
-0.05798
-0.06510
-0.02937
-0.04233
0.18612
-0.05176
0.02141
-0.11592
0.24880
0.18145
0.05576
-0.16982
-0.00207
0.12470
0.17047
-0.07517
-0.03411
0.22636
-0.04842
0.06817
0.25755
-0.04980
0.05456
-0.05253
-0.13731
0.03199
0.06729
-0.17434
-0.17129
0.02048
-0.13093
0.10132
-0.13725
-0.19210
-0.11480
-0.18066
-0.03779
-0.05948
-0.02026
-0.09555
-0.12819
0.13603
-0.08011
0.16663
-0.11498
-0.12919
0.32253
-0.17466
-0.15520
-0.08775
-0.19790
0.00405
-0.16591
-0.05744
-0.16988
-0.05225
-0.05538
-0.18771
-0.19876
-0.05215
-0.24206
-0.01429
-0.23877
-0.03833
0.10000
