# vtk DataFile Version 3.0
Point representing Sub_cellular elem model
ASCII

DATASET UNSTRUCTURED_GRID
POINTS 697 float
0.00188 1.73232 0.84469 
0.00772 1.73650 -1.30620 
1.74486 1.07009 -0.22149 
1.74420 -1.08020 -0.22047 
0.00679 -1.74788 -1.30379 
-0.00208 -1.73937 0.84471 
1.06874 -0.00028 1.53386 
-1.07815 -0.00208 1.51739 
1.08532 -0.00617 -1.96438 
-1.06824 -0.00575 -1.97221 
-1.73750 1.07276 -0.23601 
-1.73941 -1.08100 -0.23542 
0.00499 2.04706 -0.23082 
1.02733 1.65263 0.40854 
0.62733 1.01502 1.44352 
-0.63516 1.02013 1.43236 
-1.02209 1.65500 0.39975 
1.03325 1.65484 -0.86019 
0.64350 1.02024 -1.88651 
-0.62588 1.02089 -1.89108 
-1.02058 1.65650 -0.86802 
2.05510 -0.00491 -0.21930 
1.65552 0.62895 0.80626 
1.66820 0.62823 -1.24813 
1.03235 -1.66615 -0.85804 
1.02532 -1.66170 0.40908 
1.65551 -0.63524 0.80453 
1.66785 -0.64000 -1.24721 
0.00323 -2.05754 -0.22873 
0.64296 -1.03225 -1.88476 
-0.62629 -1.03239 -1.88941 
-1.02202 -1.66710 -0.86626 
0.62648 -1.02302 1.43562 
-0.63602 -1.02220 1.43486 
-1.02523 -1.66283 0.40027 
0.03056 0.51418 2.22649 
-1.65717 0.63167 0.78950 
-1.65980 -0.63526 0.78857 
0.00955 -0.00609 -2.27879 
-1.65522 0.62975 -1.26100 
-1.65572 -0.64005 -1.26026 
-2.04998 -0.00355 -0.23702 
0.00336 1.96416 0.34014 
0.52460 1.76254 0.66586 
0.32285 1.43776 1.18947 
-0.32209 1.43956 1.18612 
-0.52011 1.76405 0.66146 
0.00652 1.96667 -0.80184 
0.53109 1.76621 -1.12301 
0.33222 1.44241 -1.64642 
-0.31534 1.44285 -1.64875 
-0.51664 1.76706 -1.12686 
1.44996 1.41160 0.10036 
1.45353 1.41228 -0.54706 
1.97432 0.56570 -0.21998 
1.77105 0.88875 0.30279 
1.77746 0.88891 -0.74499 
1.97398 -0.57562 -0.21947 
1.45274 -1.42313 -0.54541 
1.44885 -1.42122 0.10121 
1.77045 -0.89733 0.30284 
1.77699 -0.90000 -0.74387 
0.53013 -1.77765 -1.12060 
0.00526 -1.97782 -0.79948 
0.33150 -1.45406 -1.64416 
-0.31603 -1.45427 -1.64657 
-0.51775 -1.77816 -1.12467 
0.52144 -1.77063 0.66626 
0.00072 -1.97313 0.34152 
0.31808 -1.44419 1.18755 
-0.32698 -1.44469 1.18542 
-0.52369 -1.77139 0.66186 
0.88939 0.52050 1.56281 
1.41085 0.32037 1.23017 
1.41251 -0.32326 1.22662 
0.89662 -0.52601 1.55059 
0.56341 -0.00372 1.80353 
-0.90122 0.52019 1.54546 
-0.90358 -0.52853 1.54366 
-0.57161 -0.00652 1.78227 
-1.41785 0.32127 1.21318 
-1.42018 -0.32388 1.21181 
0.90418 0.51726 -1.99561 
1.42693 0.31737 -1.67026 
1.42674 -0.32955 -1.66974 
0.90388 -0.52954 -1.99468 
0.58084 -0.00618 -2.19582 
-0.88651 0.51786 -2.00207 
-0.88668 -0.52943 -2.00119 
-0.56224 -0.00595 -2.19987 
-1.41157 0.31825 -1.68088 
-1.41171 -0.32926 -1.68041 
-1.44369 1.41427 0.08809 
-1.44330 1.41459 -0.55861 
-1.76771 0.89166 0.28693 
-1.76723 0.89112 -0.75922 
-1.96818 0.56808 -0.23677 
-1.44511 -1.42423 -0.55743 
-1.44638 -1.42236 0.08863 
-1.77009 -0.89774 0.28683 
-1.76837 -0.90048 -0.75846 
-1.96931 -0.57553 -0.23652 
0.56007 1.94428 0.07695 
-0.55203 1.94542 0.07255 
0.56235 1.94558 -0.53389 
-0.55087 1.94658 -0.53813 
0.89733 1.38479 0.98096 
1.05527 1.75593 -0.22586 
1.39207 1.19821 0.67787 
-0.00248 1.04513 1.53849 
1.19877 0.89324 1.17467 
0.29058 0.53958 1.77366 
-0.89694 1.38820 0.97175 
-0.31700 0.54933 1.75475 
-1.20357 0.89623 1.16039 
-1.04603 1.75786 -0.23422 
-1.39049 1.20139 0.66470 
0.90876 1.38885 -1.43174 
1.40228 1.19985 -1.12397 
0.00914 1.04498 -1.99040 
1.21456 0.89417 -1.61851 
0.31508 0.55027 -2.17708 
-0.89328 1.39006 -1.43841 
-0.29623 0.55048 -2.17924 
-1.19881 0.89538 -1.62748 
-1.38905 1.20169 -1.13468 
1.94972 0.30091 0.33683 
1.95677 0.29980 -0.77665 
1.94954 -0.30878 0.33680 
1.95660 -0.31091 -0.77626 
1.75698 -0.00250 0.83045 
1.76966 -0.00592 -1.27164 
1.05399 -1.76640 -0.22406 
1.40165 -1.21144 -1.12229 
0.56107 -1.95656 -0.53161 
0.90803 -1.40059 -1.42965 
1.39095 -1.20634 0.67648 
0.55814 -1.95416 0.07872 
0.89466 -1.39259 0.97848 
1.19941 -0.90011 1.16886 
1.21405 -0.90620 -1.61707 
-0.55253 -1.95725 -0.53613 
-0.55444 -1.95492 0.07404 
0.00868 -1.05679 -1.98858 
0.31481 -0.56244 -2.17605 
-0.89408 -1.40113 -1.43654 
-0.29644 -0.56241 -2.17822 
-1.19926 -0.90643 -1.62620 
-1.04824 -1.76758 -0.23285 
-1.39006 -1.21214 -1.13333 
-0.00693 -1.04999 1.53624 
0.30383 -0.54549 1.75868 
-0.90073 -1.39344 0.97156 
-0.29548 -0.53877 1.76931 
-1.20725 -0.90103 1.15869 
-1.39399 -1.20726 0.66400 
-1.76054 -0.00115 0.81268 
-1.94822 0.30314 0.31882 
-1.94915 -0.30788 0.31874 
-1.75721 -0.00511 -1.28542 
-1.94737 0.30135 -0.79252 
-1.94776 -0.31040 -0.79226 
0.00260 1.86467 0.60354 
0.26244 1.76410 0.76583 
0.16206 1.60215 1.02653 
-0.15954 1.60280 1.02513 
-0.25828 1.76490 0.76371 
0.00716 1.86819 -1.06522 
0.26867 1.76819 -1.22535 
0.16953 1.60676 -1.48629 
-0.15327 1.60700 -1.48744 
-0.25363 1.76862 -1.22724 
1.61469 1.25084 -0.06094 
1.61657 1.25106 -0.38371 
1.87612 0.82901 -0.22064 
1.77494 0.99007 0.03990 
1.77810 0.99023 -0.48240 
1.87561 -0.83903 -0.21988 
1.61585 -1.26157 -0.38238 
1.61385 -1.26069 -0.05994 
1.77427 -0.99951 0.04054 
1.77754 -1.00086 -0.48129 
0.26772 -1.77962 -1.22291 
0.00608 -1.87948 -1.06281 
0.16871 -1.61826 -1.48391 
-0.15410 -1.61840 -1.48512 
-0.25463 -1.77988 -1.22491 
0.25881 -1.77163 0.76611 
-0.00068 -1.87267 0.60429 
0.15755 -1.60864 1.02586 
-0.16412 -1.60895 1.02458 
-0.26208 -1.77207 0.76392 
0.99393 0.25873 1.56549 
1.25058 0.15900 1.39750 
1.25314 -0.15958 1.39403 
1.00117 -0.26040 1.55691 
0.82857 -0.00055 1.67826 
-1.00357 0.25710 1.54770 
-1.00974 -0.26292 1.54410 
-0.83784 -0.00364 1.66045 
-1.25924 0.15844 1.38063 
-1.26176 -0.16091 1.37903 
1.00548 0.25475 -1.99673 
1.26609 0.15511 -1.83459 
1.26599 -0.16740 -1.83432 
1.00532 -0.26709 -1.99627 
0.84430 -0.00619 -2.09658 
-0.98802 0.25527 -2.00395 
-0.98810 -0.26683 -2.00351 
-0.82633 -0.00586 -2.10258 
-1.24977 0.15573 -1.84386 
-1.24983 -0.16701 -1.84360 
-1.60789 1.25354 -0.07449 
-1.60774 1.25359 -0.39688 
-1.76949 0.99287 0.02468 
-1.76927 0.99273 -0.49692 
-1.86935 0.83165 -0.23642 
-1.60967 -1.26256 -0.39600 
-1.61023 -1.26168 -0.07388 
-1.77164 -1.00015 0.02497 
-1.77080 -1.00154 -0.49622 
-1.87093 -0.83947 -0.23603 
0.00417 2.02583 0.05919 
0.00579 2.02712 -0.52085 
0.28918 2.02069 -0.08136 
-0.28009 2.02125 -0.08357 
0.29016 2.02135 -0.37800 
-0.27939 2.02188 -0.38017 
0.78226 1.72519 0.54565 
1.25224 1.54705 0.25852 
0.80791 1.82053 0.24289 
0.98041 1.53428 0.70531 
1.04835 1.72924 0.09597 
1.22069 1.44347 0.55838 
0.48069 1.24106 1.32888 
0.76544 0.77545 1.52120 
0.77753 1.21087 1.22883 
0.32059 1.03833 1.51495 
0.92365 0.97320 1.32393 
0.46075 0.79245 1.62368 
-0.48319 1.24469 1.32236 
-0.77715 0.77843 1.50616 
-0.32705 1.04264 1.50830 
-0.78055 1.21502 1.21905 
-0.47569 0.79936 1.60968 
-0.93020 0.97685 1.31100 
-0.77743 1.72723 0.53897 
-1.24651 1.54961 0.24785 
-0.80114 1.82228 0.23630 
-0.97741 1.53709 0.69633 
-1.04105 1.73133 0.08739 
-1.21723 1.44638 0.54738 
0.78867 1.72820 -1.00011 
1.25720 1.54842 -0.70758 
0.81184 1.82237 -0.69728 
1.05134 1.73035 -0.54767 
0.98917 1.53751 -1.15678 
1.22883 1.44565 -1.00724 
0.49189 1.24500 -1.78134 
0.78236 0.77512 -1.95866 
0.79140 1.21552 -1.67744 
0.33103 1.03954 -1.96327 
0.93992 0.97525 -1.76812 
0.47959 0.79926 -2.05393 
-0.47455 1.24558 -1.78483 
-0.76463 0.77577 -1.96424 
-0.31292 1.03987 -1.96557 
-0.77475 1.21645 -1.68315 
-0.46124 0.79966 -2.05728 
-0.92310 0.97619 -1.77493 
-0.77502 1.72946 -1.00596 
-1.24568 1.55043 -0.71733 
-0.79971 1.82376 -0.70342 
-1.04030 1.73216 -0.55580 
-0.97503 1.53897 -1.16415 
-1.21577 1.44746 -1.01659 
2.03479 0.28490 -0.21953 
2.03461 -0.29475 -0.21927 
2.02746 0.14368 0.06540 
2.03110 0.14298 -0.50438 
2.02737 -0.15258 0.06547 
2.03101 -0.15354 -0.50421 
1.73094 0.76717 0.56091 
1.54751 0.47849 1.03148 
1.53912 0.92420 0.76039 
1.44520 0.77634 1.00134 
1.82466 0.46540 0.58547 
1.73097 0.31802 0.82551 
1.74061 0.76706 -1.00295 
1.56252 0.47675 -1.47289 
1.55092 0.92483 -1.20403 
1.45978 0.77637 -1.44427 
1.83475 0.46423 -1.02635 
1.74377 0.31577 -1.26671 
1.25635 -1.55954 -0.70566 
0.78773 -1.73961 -0.99780 
1.05029 -1.74131 -0.54563 
1.22807 -1.45710 -1.00528 
0.81076 -1.83353 -0.69503 
0.98836 -1.54906 -1.15462 
1.25075 -1.55643 0.25919 
0.77967 -1.73383 0.54611 
1.04674 -1.73906 0.09731 
1.21898 -1.45214 0.55791 
0.80588 -1.83001 0.24419 
0.97798 -1.54261 0.70462 
1.73053 -0.77470 0.56016 
1.54821 -0.48326 1.02872 
1.82447 -0.47229 0.58494 
1.73102 -0.32337 0.82457 
1.53868 -0.93153 0.75848 
1.44557 -0.78266 0.99772 
1.74020 -0.77853 -1.00191 
1.56224 -0.48877 -1.47214 
1.83450 -0.47574 -1.02571 
1.74359 -0.32759 -1.26624 
1.55042 -0.93653 -1.20270 
1.45934 -0.78831 -1.44308 
0.00431 -2.03803 -0.51859 
0.00203 -2.03566 0.06101 
0.28865 -2.03212 -0.37577 
0.28736 -2.03092 -0.07935 
-0.28111 -2.03250 -0.37809 
-0.28214 -2.03132 -0.08172 
0.49125 -1.25683 -1.77929 
0.78193 -0.78728 -1.95730 
0.79075 -1.22740 -1.67547 
0.93937 -0.98729 -1.76650 
0.33052 -1.05146 -1.96146 
0.47918 -0.81136 -2.05250 
-0.47510 -1.25703 -1.78286 
-0.76491 -0.78732 -1.96294 
-0.31335 -1.05154 -1.96380 
-0.77531 -1.22773 -1.68133 
-0.46154 -0.81139 -2.05588 
-0.92352 -0.98750 -1.77342 
-0.77627 -1.74036 -1.00396 
-1.24731 -1.56062 -0.71585 
-0.80129 -1.83442 -0.70153 
-0.97612 -1.54982 -1.16231 
-1.04212 -1.74241 -0.55420 
-1.21701 -1.45799 -1.01500 
0.47717 -1.24851 1.32432 
0.76981 -0.78455 1.50869 
0.77520 -1.21852 1.22396 
0.92422 -0.98123 1.31597 
0.31875 -1.04685 1.50819 
0.46374 -0.80096 1.61221 
-0.48743 -1.24855 1.32246 
-0.77799 -0.78511 1.50614 
-0.33056 -1.04539 1.50935 
-0.78374 -1.21892 1.21945 
-0.47029 -0.79753 1.61664 
-0.93307 -0.98195 1.31022 
-0.78078 -1.73481 0.53949 
-1.24946 -1.55763 0.24834 
-0.80393 -1.83102 0.23735 
-1.04370 -1.74024 0.08840 
-0.98101 -1.54365 0.69636 
-1.22063 -1.45324 0.54726 
0.25948 -0.41858 1.95563 
0.23989 -0.36865 2.18177 
0.42739 0.26367 2.11770 
0.16542 -0.39290 2.90668 
-0.22636 -0.42290 2.01254 
-0.31040 -0.34856 2.25305 
-1.55195 0.48057 1.01452 
-1.72995 0.77010 0.54453 
-1.44836 0.77916 0.98571 
-1.53931 0.92731 0.74521 
-1.73371 0.32011 0.80786 
-1.82479 0.46793 0.56791 
[...]
CELL_DATA 2083
SCALARS Strain double 
LOOKUP_TABLE default 
-0.08672
-0.09003
-0.08674
-0.08840
-0.08893
-0.08827
-0.08692
-0.08805
-0.08750
-0.08731
-0.08839
-0.08759
-0.08868
-0.08694
-0.08741
-0.08815
-0.08726
-0.08873
-0.08749
-0.08815
-0.08695
-0.08840
-0.08797
-0.08755
-0.08719
-0.08906
-0.08731
-0.08843
-0.08705
-0.08959
-0.09879
-0.07853
-0.06724
-0.10444
-0.06959
-0.09893
-0.10033
-0.07145
-0.07714
-0.07227
-0.08772
-0.08755
-0.08745
-0.08776
-0.08731
-0.08729
-0.08735
-0.08765
-0.08773
-0.08764
-0.08732
-0.08825
-0.08854
-0.08784
-0.08761
-0.08725
-0.08816
-0.08848
-0.08886
-0.08693
-0.03456
-0.03480
0.06964
0.06873
0.06884
0.06973
-0.03706
-0.03638
0.06952
0.07214
0.07073
0.06856
-0.02785
-0.04634
0.08605
0.04853
0.06994
0.09989
-0.02854
-0.03759
0.05619
0.07385
0.07895
0.06888
-0.03513
-0.03465
0.06818
0.06998
0.06941
0.06760
-0.03329
-0.03338
0.06878
0.06911
0.06902
0.06879
-0.03454
-0.03448
0.06923
0.07017
0.07019
0.06930
-0.03388
-0.03384
0.06994
0.06882
0.06900
0.06981
-0.03401
-0.03418
0.06993
0.06858
0.06853
0.07001
-0.03545
-0.03533
0.07014
0.06926
0.06899
0.06991
-0.03213
-0.03187
0.06462
0.07076
0.07122
0.06418
-0.03416
-0.03417
0.06899
0.06994
0.06977
0.06906
-0.03342
-0.03336
0.06848
0.06906
0.06909
0.06865
-0.03565
-0.03590
0.06887
0.06846
0.06898
0.06946
-0.03324
-0.03276
0.06715
0.06741
0.06842
0.06621
-0.03433
-0.03421
0.06975
0.06914
0.06912
0.06983
-0.03544
-0.03531
0.06930
0.06940
0.06960
0.06934
-0.03446
-0.03442
0.06928
0.07001
0.07001
0.06939
-0.03390
-0.03386
0.06983
0.06893
0.06913
0.06973
-0.03364
-0.03365
0.06994
0.06813
0.06791
0.07004
-0.02904
-0.04495
0.07652
0.07434
0.05268
0.08591
-0.02667
-0.05248
0.04671
0.08560
0.10608
0.07781
-0.03594
-0.03529
0.06969
0.06862
0.06980
0.06920
-0.20831
0.01842
0.02655
-0.19745
0.14943
-0.03469
-0.03506
0.06993
0.06686
0.06689
0.07074
-0.03398
-0.03438
0.06752
0.06966
0.06914
0.06737
-0.03388
-0.03394
0.06940
0.06937
0.06942
0.06940
-0.03469
-0.03473
0.06921
0.07033
0.07043
0.06888
-0.03483
-0.03507
0.06934
0.07041
0.07049
0.06918
-0.03344
-0.03328
0.06934
0.06747
0.06776
0.06904
-0.06520
-0.04502
0.07930
0.07801
0.03253
0.03361
-0.06846
-0.04794
0.07955
0.08137
0.03493
0.03426
-0.06431
-0.04328
0.08203
0.07528
0.02880
0.03596
-0.06690
-0.04645
0.07714
0.08117
0.03526
0.03280
-0.06678
-0.04596
0.07785
0.08069
0.03434
0.03213
-0.06643
-0.04576
0.07957
0.08039
0.03475
0.03401
-0.06483
-0.04411
0.07942
0.07921
0.03343
0.03363
-0.06612
-0.04543
0.07942
0.08060
0.03497
0.03397
-0.06548
-0.04476
0.08048
0.07893
0.03348
0.03463
-0.06534
-0.04473
0.08032
0.07881
0.03316
0.03454
-0.06685
-0.04666
0.08066
0.07865
0.03393
0.03582
-0.06532
-0.04439
0.08004
0.07882
0.03306
0.03402
-0.06697
-0.04635
0.08017
0.07994
0.03426
0.03442
-0.06453
-0.04339
0.07758
0.07998
0.03360
0.03130
-0.06552
-0.04494
0.07892
0.08001
0.03450
0.03338
-0.06646
-0.04600
0.07880
0.08022
0.03470
0.03358
-0.06512
-0.04433
0.07900
0.07904
0.03331
0.03338
-0.06705
-0.04649
0.07915
0.07972
0.03425
0.03372
-0.06532
-0.04438
0.07822
0.07924
0.03286
0.03203
-0.06609
-0.04530
0.08014
0.07913
0.03358
0.03456
-0.06488
-0.04418
0.07963
0.07904
0.03310
0.03381
-0.06674
-0.04625
0.07982
0.08036
0.03471
0.03434
-0.06601
-0.04532
0.07937
0.08051
0.03484
0.03398
-0.06550
-0.04477
0.08043
0.07897
0.03358
0.03463
-0.06517
-0.04447
0.08029
0.07868
0.03282
0.03452
-0.06716
-0.04653
0.07826
0.08028
0.03373
0.03242
-0.06598
-0.04583
0.07846
0.07912
0.03334
0.03310
-0.06708
-0.04751
0.08132
0.07688
0.03265
0.03611
-0.06460
-0.04353
0.07592
0.08106
0.03519
0.03049
-0.06767
-0.04692
0.07940
0.08018
0.03367
0.03407
-0.06412
-0.04876
0.08524
0.07647
0.03879
0.04242
-0.06257
-0.04259
0.08358
0.07206
0.02836
0.03925
-0.05967
-0.04246
0.07648
0.07114
0.03018
0.03564
-0.05208
-0.03386
0.07082
0.06891
0.02709
0.02289
-0.02632
0.06698
0.13011
0.15673
0.02561
0.02577
-0.06274
-0.03989
0.08216
0.07612
0.02611
0.03421
-0.05035
-0.04341
0.05964
0.08266
0.04672
0.03005
-0.02793
0.13146
0.14669
0.02552
0.02538
-0.06265
-0.04452
0.07799
0.07511
0.03211
0.03585
-0.06319
-0.04415
0.07664
0.07843
0.03570
0.03230
-0.06582
-0.04524
0.08025
0.07962
0.03397
0.03458
-0.06562
-0.04499
0.08017
0.07947
0.03380
0.03438
-0.06552
-0.04494
0.07949
0.08003
0.03427
0.03384
-0.06584
-0.04522
0.08011
0.07976
0.03408
0.03446
-0.06531
-0.04467
0.07961
0.07972
0.03398
0.03393
-0.06529
-0.04464
0.07957
0.07980
0.03425
0.03372
-0.06534
-0.04467
0.07972
0.07972
0.03416
0.03384
-0.06559
-0.04484
0.07973
0.07985
0.03421
0.03414
-0.06593
-0.04542
0.07965
0.08046
0.03476
0.03383
-0.06586
-0.04542
0.07959
0.08047
0.03476
0.03383
-0.06548
-0.04511
0.07924
0.07843
0.03309
0.03380
-0.06613
-0.04524
0.07906
0.08030
0.03444
0.03337
-0.06671
-0.04603
0.07829
0.08051
0.03462
0.03285
-0.06605
-0.04551
0.08046
0.07870
0.03357
0.03493
-0.06546
-0.04452
0.08010
0.07826
0.03230
0.03389
-0.06521
-0.04451
0.07806
0.08026
0.03427
0.03262
-0.06642
-0.04591
0.07820
0.08046
0.03460
0.03300
-0.06646
-0.04555
0.08050
0.07805
0.03241
0.03459
-0.06692
-0.04611
0.08057
0.07947
0.03414
0.03514
-0.06479
-0.04406
0.07808
0.07927
0.03353
0.03253
0.07211
0.07212
0.01895
0.02064
0.01704
0.01582
0.07106
0.07087
0.02008
0.02022
0.01672
0.01704
0.07135
0.07131
0.02105
0.01978
0.01675
0.01785
0.07232
0.07238
0.02028
0.01953
0.01649
0.01699
0.07701
0.08111
0.02067
0.01373
0.01394
0.01348
0.07240
0.07189
0.02070
0.01923
0.01588
0.01777
0.06967
0.06818
0.02324
0.01920
0.01516
0.02148
0.07569
0.08226
0.02077
0.02154
0.01947
0.01314
0.07254
0.07293
0.02683
0.01422
0.01161
0.02294
0.12780
0.08837
0.07324
0.02575
0.07968
0.02572
0.07428
0.07324
0.01721
0.01911
0.01446
0.01604
0.09482
0.25064
0.04183
0.02513
0.07172
0.02503
0.07027
0.07139
0.02053
0.01864
0.01516
0.01760
0.07152
0.07124
0.01972
0.02057
0.01718
0.01681
0.06966
0.06939
0.02043
0.02046
0.01666
0.01753
0.07156
0.07164
0.01992
0.02129
0.01808
0.01678
0.07135
0.07142
0.02021
0.02101
0.01799
0.01701
0.07264
0.07256
0.02038
0.01994
0.01687
0.01726
0.07267
0.07258
0.02025
0.02007
0.01683
0.01703
0.07185
0.07188
0.02088
0.02023
0.01697
0.01766
0.07117
0.07106
0.02081
0.02087
0.01775
0.01748
0.07166
0.07179
0.02067
0.02051
0.01730
0.01759
0.07216
0.07196
0.01987
0.02104
0.01781
0.01656
0.07263
0.07274
0.01965
0.02022
0.01729
0.01649
0.07296
0.07336
0.02042
0.01762
0.01473
0.01684
0.07195
0.07211
0.02062
0.01974
0.01661
0.01738
0.07106
0.07044
0.02127
0.01868
0.01510
0.01846
0.07229
0.07224
0.02013
0.01987
0.01665
0.01713
0.06779
0.06896
0.02337
0.01810
0.01608
0.01906
0.07160
0.07163
0.02058
0.02054
0.01735
0.01727
0.07096
0.07108
0.01960
0.02068
0.01764
0.01639
0.07157
0.07160
0.01985
0.02098
0.01789
0.01685
0.07166
0.07175
0.01926
0.02097
0.01772
0.01605
0.07139
0.07161
0.02009
0.02115
0.01794
0.01692
0.07094
0.07104
0.02013
0.01822
0.01530
0.01678
0.07157
0.07171
0.01958
0.01964
0.01643
0.01614
0.07302
0.07494
0.01921
0.01663
0.01589
0.01352
0.06903
0.07044
0.02109
0.01712
0.01598
0.01595
0.07242
0.07249
0.02015
0.02031
0.01701
0.01695
0.07227
0.07237
0.02072
0.01897
0.01575
0.01760
0.07193
0.07207
0.01970
0.01939
0.01588
0.01675
0.07249
0.07243
0.02040
0.02004
0.01696
0.01728
0.07194
0.07194
0.02076
0.02023
0.01702
0.01755
0.07119
0.07091
0.02086
0.02087
0.01776
0.01761
0.07178
0.07187
0.02059
0.02048
0.01730
0.01749
0.07212
0.07199
0.01994
0.02105
0.01783
0.01652
0.07034
0.07054
0.02038
0.02084
0.01765
0.01696
0.07268
0.07281
0.01919
0.02060
0.01753
0.01627
0.08535
0.07827
0.02252
0.02010
0.01243
0.01778
0.11254
-0.18848
0.07195
0.02526
0.09859
0.02547
0.07885
0.07451
0.01546
0.02086
0.01378
0.01621
0.15404
0.34554
0.11650
0.02504
0.09168
0.02542
0.07420
0.07157
0.01934
0.02042
0.01529
0.01703
0.07168
0.07193
0.01977
0.01887
0.01601
0.01699
0.07042
0.07117
0.02133
0.01814
0.01482
0.01770
0.07293
0.07237
0.01963
0.01833
0.01492
0.01695
0.06975
0.06978
0.02074
0.02006
0.01726
0.01733
0.07300
0.07302
0.01991
0.02003
0.01675
0.01645
0.07101
0.07063
0.02139
0.01996
0.01671
0.01833
0.07155
0.07148
0.02155
0.01907
0.01616
0.01839
0.07053
0.06896
-0.00792
-0.00670
0.07204
-0.00498
-0.00539
0.06776
-0.00966
-0.00552
0.07257
-0.00407
-0.00760
-0.00512
-0.00764
0.07084
0.07159
-0.00506
-0.00568
0.07058
-0.00649
-0.00623
0.07175
-0.00495
-0.00585
0.07016
-0.00640
-0.00529
-0.00666
-0.00547
0.07163
0.06991
-0.00592
-0.00458
0.06996
-0.00687
-0.00568
0.07100
0.07129
-0.00528
-0.00557
-0.00656
-0.00760
-0.00551
-0.00674
0.06986
0.07139
-0.00535
-0.00641
0.07053
0.07015
-0.00682
-0.00642
0.07093
-0.00547
-0.00591
-0.00662
-0.00743
-0.00642
-0.00534
0.07100
0.07047
-0.00672
-0.00610
0.07154
-0.00509
-0.00546
0.07175
-0.00502
-0.00589
0.07014
-0.00632
-0.00523
-0.00688
-0.00551
0.06927
0.07215
-0.00575
-0.00750
0.07032
-0.00691
-0.00742
0.06795
-0.00792
-0.00407
0.07145
-0.00583
-0.00879
-0.00587
-0.00575
0.07090
0.08747
-0.00531
-0.01434
0.05778
-0.00903
0.00161
0.05085
-0.01164
-0.00083
0.11131
-0.00857
-0.04375
-0.02720
-0.03945
0.09193
0.06559
-0.01938
-0.00426
0.10273
0.05601
-0.03519
-0.01291
-0.02848
-0.03286
0.06032
-0.00683
-0.00281
0.00082
-0.00918
0.07136
0.07088
-0.00585
-0.00541
0.07076
-0.00602
-0.00556
0.07126
-0.00568
-0.00602
0.07101
-0.00573
-0.00548
-0.00591
-0.00598
0.07100
0.07093
-0.00578
-0.00604
0.07113
0.07086
-0.00583
-0.00592
-0.00558
-0.00566
0.07151
-0.00530
-0.00595
-0.00533
-0.00601
0.07036
0.07015
-0.00660
-0.00649
0.07143
-0.00549
-0.00634
0.07140
-0.00542
-0.00637
0.06978
-0.00645
-0.00528
-0.00723
-0.00596
0.06944
0.07142
-0.00593
-0.00725
0.07185
-0.00522
-0.00694
0.06962
-0.00702
-0.00509
0.07064
-0.00563
-0.00491
-0.00651
-0.00724
0.05522
0.05617
0.07703
0.07597
0.05672
0.05590
0.07685
0.07771
-0.01513
-0.01621
0.04863
-0.01525
-0.01635
0.04964
-0.01672
0.05001
-0.01683
0.04912
0.05726
0.05620
0.07719
0.07922
0.05610
0.05847
0.07831
0.07613
-0.01663
-0.01812
0.04990
-0.01752
-0.02034
0.04757
-0.01767
0.04988
-0.01807
0.05340
0.04482
0.05697
0.08089
0.07239
0.06581
0.06877
0.08157
0.07985
-0.02138
-0.01435
0.04674
0.00663
-0.01269
0.03622
-0.02264
0.05808
-0.03992
0.01194
0.04874
0.04973
0.07810
0.07561
0.06053
0.05449
0.06972
0.07383
0.00458
-0.01697
0.02615
-0.01750
-0.01551
0.04815
-0.02393
0.02352
-0.01597
0.04986
0.05622
0.05465
0.07558
0.07751
0.05505
0.05634
0.07690
0.07554
-0.01511
-0.01663
0.04921
-0.01549
-0.01776
0.04713
-0.01620
0.04876
-0.01639
0.05009
0.05570
0.05570
0.07669
0.07665
0.05538
0.05597
0.07712
0.07638
-0.01392
-0.01526
0.04916
-0.01546
0.04865
-0.01381
-0.01515
0.04905
-0.01534
0.04926
0.05707
0.05610
0.07691
0.07799
0.05607
0.05685
0.07780
0.07704
-0.01504
-0.01649
0.05039
-0.01499
-0.01646
0.04950
-0.01637
0.04934
-0.01630
0.05015
0.05570
0.05672
0.07781
0.07644
0.05657
0.05574
0.07685
0.07739
-0.01449
-0.01594
0.04918
-0.01423
-0.01568
0.04991
-0.01585
0.05001
-0.01558
0.04891
0.05532
0.05677
0.07771
0.07622
0.05666
0.05540
0.07639
0.07775
-0.01476
-0.01601
0.04875
-0.01636
0.04985
-0.01451
-0.01576
0.05016
-0.01611
0.04873
0.05607
0.05666
0.07780
0.07718
0.05692
0.05588
0.07647
0.07766
-0.01639
-0.01796
0.04907
-0.01552
-0.01697
0.04985
-0.01755
0.05055
-0.01683
0.04943
0.05641
0.05225
0.07373
0.07797
0.05037
0.05948
0.08004
0.07074
-0.01097
-0.01323
0.04904
-0.01196
0.04429
-0.01447
-0.01546
0.04597
-0.01687
0.05174
0.05672
0.05573
0.07657
0.07747
0.05589
0.05656
0.07765
0.07686
-0.01477
-0.01615
0.05022
-0.01615
0.04916
-0.01460
-0.01596
0.04911
-0.01600
0.04975
0.05570
0.05547
0.07628
0.07665
0.05524
0.05593
0.07696
0.07639
-0.01399
-0.01548
0.04904
-0.01390
-0.01536
0.04900
-0.01534
0.04847
-0.01525
0.04925
0.05604
0.05578
0.07648
0.07684
0.05561
0.05522
0.07617
0.07699
-0.01590
-0.01720
0.04960
-0.01631
-0.01786
0.04925
-0.01722
0.04865
-0.01846
0.04744
0.05457
0.05371
0.07529
0.07626
0.05336
0.05582
0.07486
0.07243
-0.01326
-0.01508
0.04726
-0.01395
0.04773
-0.01472
-0.01592
0.04708
-0.01681
0.04881
0.05586
0.05668
0.07753
0.07674
0.05648
0.05598
0.07691
0.07750
-0.01472
-0.01626
0.04917
-0.01600
0.04978
-0.01486
-0.01640
0.05010
-0.01613
0.04929
0.05662
0.05635
0.07719
0.07766
0.05583
0.05589
0.07654
0.07680
-0.01585
-0.01728
0.04982
-0.01704
0.04914
-0.01600
-0.01743
0.04974
-0.01717
0.04946
0.05691
0.05615
0.07692
0.07785
0.05616
0.05670
0.07763
0.07715
-0.01495
-0.01637
0.05022
-0.01631
0.04937
-0.01493
-0.01637
0.04956
-0.01628
0.05001
0.05582
0.05667
0.07772
0.07652
0.05646
0.05586
0.07700
0.07730
-0.01450
-0.01593
0.04929
-0.01424
-0.01568
0.04990
-0.01587
0.04989
-0.01559
0.04896
0.05482
0.05678
0.07771
0.07597
0.05663
0.05483
0.07553
0.07776
-0.01418
-0.01559
0.04803
-0.01421
-0.01556
0.05019
-0.01557
0.04979
-0.01566
0.04843
0.04881
0.04763
0.07563
0.07875
0.04812
0.07411
0.07460
0.05207
-0.02083
-0.01602
0.04972
-0.01459
0.04728
0.00867
-0.01883
0.01849
-0.03872
0.01035
0.05414
0.04614
0.07423
0.07872
0.08625
0.05606
0.06410
0.08376
0.00959
-0.01288
0.03127
-0.02245
-0.01392
0.05081
-0.06344
0.00040
-0.01794
0.05134
0.05556
0.05639
0.07716
0.07740
0.05651
0.05557
0.07586
0.07750
-0.01559
-0.01721
0.04833
-0.01662
0.04992
-0.01611
-0.01894
0.04823
-0.01737
0.04976
-0.05036
-0.16333
0.22443
0.39413
0.20957
0.02062
-0.14175
0.03601
0.04371
0.23009
-0.07756
-0.07656
0.05367
0.05769
0.07698
0.07394
0.05687
0.05431
0.07505
0.07824
-0.01477
-0.01597
0.04696
-0.01637
0.04949
-0.01665
-0.01820
0.05063
-0.01787
0.04833
0.05664
0.05425
0.07518
0.07636
0.05434
0.05638
0.07763
0.07521
-0.01518
-0.01704
0.04924
-0.01664
0.04828
-0.01464
-0.01569
0.04726
-0.01637
0.04942
0.05615
0.05613
0.07707
0.07714
0.05627
0.05624
0.07713
0.07721
-0.01435
-0.01569
0.04941
-0.01582
0.04958
-0.01441
-0.01575
0.04944
-0.01587
0.04959
0.05705
0.05585
0.07703
0.07806
0.05588
0.05723
0.07804
0.07638
-0.01529
-0.01660
0.05032
-0.01671
0.04951
-0.01519
-0.01651
0.04889
-0.01657
0.05066
0.05710
0.05597
0.07703
0.07808
0.05620
0.05734
0.07815
0.07692
-0.01546
-0.01661
0.05036
-0.01709
0.04968
-0.01550
-0.01663
0.04918
-0.01714
0.05073
0.05427
0.05594
0.07733
0.07554
0.05588
0.05460
0.07531
0.07669
-0.01424
-0.01594
0.04734
-0.01545
0.04958
-0.01362
-0.01515
0.04910
-0.01496
0.04822
-0.01696
-0.01933
-0.01713
-0.01798
0.08540
0.08409
-0.02133
-0.01656
0.08871
-0.01499
-0.01753
0.08349
-0.01920
-0.01855
0.08570
-0.01799
-0.01647
-0.01811
-0.01713
0.08512
0.08606
-0.01636
-0.01771
0.08510
-0.01775
-0.01720
0.08627
-0.01692
-0.01684
0.08463
-0.01856
-0.01693
-0.01859
-0.01531
0.08592
0.08320
-0.01673
-0.01728
0.08480
-0.01923
-0.01661
-0.01820
-0.01709
0.08633
0.08565
-0.01846
-0.01658
-0.01794
-0.01762
0.08428
0.08589
-0.01678
-0.01836
-0.01667
-0.01775
0.08466
0.08502
-0.01909
-0.01719
0.08499
-0.01652
-0.01839
-0.01645
-0.01758
0.08542
0.08500
-0.01853
-0.01683
0.08605
-0.01765
-0.01720
0.08615
-0.01694
-0.01673
0.08458
-0.01838
-0.01784
-0.01900
-0.01944
0.08464
0.08550
-0.01793
-0.01862
0.08527
-0.01813
-0.01472
0.08358
-0.01688
-0.02000
0.08678
-0.02229
-0.01395
0.00489
-0.06094
0.08891
0.04292
-0.01996
-0.01364
0.08143
-0.01932
-0.01262
0.08129
0.03554
-0.10835
0.00667
0.00769
-0.06311
-0.01726
-0.01681
0.05605
0.08382
0.03331
-0.09433
-0.01528
-0.01969
-0.00546
0.08669
-0.01967
-0.01654
0.08397
-0.01751
-0.01731
-0.01743
-0.01686
0.08609
0.08539
-0.01717
-0.01709
0.08522
-0.01723
-0.01748
0.08592
-0.01745
-0.01693
0.08550
-0.01702
-0.01711
-0.01675
-0.01766
0.08535
0.08556
-0.01707
-0.01716
-0.01677
-0.01758
0.08547
0.08550
-0.01759
-0.01759
0.08643
-0.01714
-0.01780
-0.01715
-0.01779
0.08493
0.08350
-0.01757
-0.01786
0.08624
-0.01888
-0.01751
0.08624
-0.01766
-0.01654
0.08428
-0.01674
-0.01761
-0.01694
-0.01852
0.08387
0.08630
-0.01854
-0.01810
0.08594
-0.01785
-0.01657
0.08355
-0.01855
-0.01621
0.08509
0.04872
0.04737
0.04818
0.04770
0.04848
0.04768
0.05434
0.04444
0.04691
0.09969
-0.01814
-0.02284
0.04904
0.04737
0.04571
0.04803
0.04783
0.04907
0.04884
0.04828
0.04805
0.04753
0.04847
0.04898
0.04975
0.04726
0.04537
0.04834
0.04853
0.04788
0.04724
0.04783
0.04845
0.04800
0.04794
0.04892
0.04677
0.04771
0.04653
0.04838
0.04857
0.04680
0.04870
0.04833
0.04813
0.04745
0.04854
0.04902
0.11693
-0.05606
-0.03777
0.04948
0.04812
0.04719
0.04772
0.04884
0.04593
0.04946
0.04729
0.04784
0.22089
-0.03004
-0.03809
0.06871
-0.11889
0.11056
-0.03051
-0.13341
-0.16534
-0.09395
0.03874
-0.16804
-0.13655
0.16348
0.02664
-0.14235
-0.06953
-0.14057
-0.22838
0.21031
-0.20831
0.06443
0.08885
-0.17452
0.04639
-0.17972
-0.07772
0.01782
0.05880
0.10844
-0.23126
0.13440
0.11359
0.09189
0.00924
0.00113
-0.01800
0.04532
0.19617
-0.12234
0.00093
0.09947
0.05810
0.14543
0.00941
-0.02016
0.01590
0.11268
-0.08156
-0.08023
-0.09604
0.07959
-0.07896
0.31833
-0.04836
0.17535
-0.25407
-0.00417
-0.13653
0.04862
0.00781
0.01824
-0.17010
0.06122
-0.13783
-0.02133
-0.03634
-0.07437
-0.05420
-0.10370
-0.03121
0.07185
0.25208
0.15786
0.02238
-0.02136
0.03283
0.07128
0.09780
0.20332
0.06005
0.05604
-0.17458
0.21542
-0.03224
-0.04851
-0.04346
-0.06157
0.19733
0.19760
0.02478
-0.09111
0.05756
-0.00870
0.12946
0.27672
0.06906
-0.01568
0.12071
-0.02537
0.03797
-0.12291
-0.00977
0.10452
-0.09461
-0.00662
0.11397
0.24222
-0.01424
0.03238
-0.08420
-0.02524
0.17636
-0.09422
0.21473
-0.07661
0.28356
-0.02666
0.02866
0.01124
-0.00416
0.16365
0.17671
-0.12059
0.07530
-0.02784
-0.17282
0.15654
-0.16931
-0.12589
0.18234
0.12545
-0.06803
-0.05085
-0.07653
0.04263
-0.06882
0.01773
0.04675
0.12043
-0.20981
-0.06381
-0.19043
0.08114
-0.10934
0.29357
-0.06904
0.01219
-0.06759
0.10080
-0.04631
-0.03222
-0.14006
-0.08776
-0.08490
-0.02680
-0.18680
-0.15955
-0.04944
0.01567
-0.07393
-0.09051
-0.16709
-0.18911
-0.11265
-0.18837
-0.25899
-0.07190
-0.25822
-0.04597
0.10000
