# vtk DataFile Version 3.0
Point representing Sub_cellular elem model
ASCII

DATASET UNSTRUCTURED_GRID
POINTS 654 float
-0.00196 1.74010 1.03101 
0.00141 1.74082 -1.12027 
1.74182 1.07645 -0.04197 
1.74197 -1.07470 -0.03918 
0.00259 -1.74251 -1.11689 
0.00135 -1.73383 1.03515 
1.06903 0.00892 1.71694 
-1.07659 0.00119 1.70433 
1.07897 -0.00118 -1.78258 
-1.07415 -0.00176 -1.78430 
-1.74140 1.07635 -0.04554 
-1.74081 -1.07712 -0.04393 
0.00046 2.05189 -0.04456 
1.02514 1.65967 0.59062 
0.63055 1.03023 1.62089 
-0.64178 1.02593 1.61879 
-1.02654 1.65996 0.58870 
1.02764 1.66043 -0.67747 
0.63653 1.02523 -1.70310 
-0.63241 1.02487 -1.70412 
-1.02549 1.66009 -0.67928 
2.05301 0.00073 -0.04060 
1.65746 0.63502 0.98467 
1.66289 0.63406 -1.06797 
1.02861 -1.66041 -0.67383 
1.02587 -1.65519 0.59559 
1.65666 -0.62987 0.98720 
1.66319 -0.63475 -1.06664 
0.00227 -2.05102 -0.04007 
0.63713 -1.02766 -1.70116 
-0.63177 -1.02803 -1.70224 
-1.02430 -1.66173 -0.67626 
0.63268 -1.01426 1.62684 
-0.63155 -1.01900 1.62194 
-1.02423 -1.65859 0.59155 
0.21238 -0.02424 2.38566 
-1.66143 0.63469 0.98051 
-1.66069 -0.63330 0.98011 
0.00263 -0.00173 -2.09421 
-1.65961 0.63320 -1.07087 
-1.65923 -0.63585 -1.06980 
-2.05294 -0.00033 -0.04539 
-0.00039 1.97006 0.52643 
0.52193 1.77020 0.85017 
0.32027 1.44897 1.37334 
-0.32815 1.44826 1.37265 
-0.52459 1.77033 0.84913 
0.00098 1.97106 -0.61568 
0.52491 1.77112 -0.93856 
0.32539 1.44711 -1.46172 
-0.32188 1.44693 -1.46225 
-0.52236 1.77090 -0.93944 
1.44746 1.41813 0.28083 
1.44900 1.41842 -0.36612 
1.97189 0.57180 -0.04132 
1.77023 0.89506 0.48160 
1.77312 0.89507 -0.56531 
1.97188 -0.57024 -0.03979 
1.44959 -1.41747 -0.36273 
1.44769 -1.41521 0.28483 
1.76988 -0.89190 0.48437 
1.77343 -0.89463 -0.56323 
0.52608 -1.77203 -0.93494 
0.00246 -1.97166 -0.61168 
0.32629 -1.44926 -1.45894 
-0.32095 -1.44950 -1.45954 
-0.52111 -1.77263 -0.93607 
0.52385 -1.76435 0.85516 
0.00193 -1.96701 0.53110 
0.32361 -1.43820 1.37799 
-0.32217 -1.44005 1.37585 
-0.52128 -1.76657 0.85281 
0.89420 0.53109 1.73903 
1.41465 0.32641 1.40935 
1.41432 -0.31713 1.41098 
0.89680 -0.51308 1.74136 
0.54814 0.00890 1.98477 
-0.90005 0.52204 1.73543 
-0.89902 -0.52307 1.72981 
-0.56341 0.00626 1.96634 
-1.41986 0.32355 1.40362 
-1.41969 -0.32192 1.40149 
0.89741 0.52231 -1.81324 
1.42098 0.32278 -1.48937 
1.42115 -0.32442 -1.48875 
0.89770 -0.52481 -1.81226 
0.57403 -0.00151 -2.01273 
-0.89284 0.52181 -1.81467 
-0.89252 -0.52530 -1.81372 
-0.56889 -0.00182 -2.01364 
-1.41677 0.32200 -1.49171 
-1.41657 -0.32523 -1.49114 
-1.44788 1.41839 0.27796 
-1.44752 1.41814 -0.36886 
-1.77187 0.89531 0.47769 
-1.77112 0.89444 -0.56870 
-1.97171 0.57140 -0.04560 
-1.44658 -1.41947 -0.36647 
-1.44672 -1.41841 0.28007 
-1.77134 -0.89491 0.47864 
-1.77063 -0.89624 -0.56725 
-1.97149 -0.57211 -0.04479 
0.55624 1.95013 0.26136 
-0.55618 1.95031 0.26030 
0.55720 1.95073 -0.34942 
-0.55571 1.95067 -0.35043 
0.89770 1.39450 1.16210 
1.05108 1.76190 -0.04335 
1.39246 1.20558 0.85748 
-0.00648 1.06021 1.71914 
1.20275 0.90205 1.35294 
0.29791 0.56343 1.93641 
-0.90287 1.39358 1.16057 
-0.31162 0.56526 1.92765 
-1.20829 0.89909 1.35085 
-1.05033 1.76196 -0.04533 
-1.39534 1.20558 0.85486 
0.90225 1.39416 -1.24878 
1.39660 1.20571 -0.94275 
0.00212 1.04944 -1.80524 
1.20818 0.89966 -1.43682 
0.30799 0.55491 -1.99314 
-0.89902 1.39369 -1.25026 
-0.30319 0.55474 -1.99362 
-1.20437 0.89900 -1.43879 
-1.39379 1.20507 -0.94518 
1.94947 0.30645 0.51530 
1.95293 0.30570 -0.59756 
1.94925 -0.30365 0.51629 
1.95302 -0.30538 -0.59685 
1.75866 0.00240 1.01021 
1.76479 -0.00036 -1.09176 
1.05206 -1.76006 -0.03894 
1.39722 -1.20619 -0.94018 
0.55861 -1.95015 -0.34508 
0.90308 -1.39554 -1.24598 
1.39194 -1.20011 0.86177 
0.55785 -1.94752 0.26625 
0.89811 -1.38576 1.16742 
1.20199 -0.89239 1.35723 
1.20868 -0.90129 -1.43505 
-0.55410 -1.95122 -0.34659 
-0.55409 -1.94923 0.26432 
0.00275 -1.05241 -1.80328 
0.30831 -0.55804 -1.99210 
-0.89810 -1.39626 -1.24772 
-0.30286 -0.55820 -1.99260 
-1.20380 -0.90204 -1.43718 
-1.04881 -1.76236 -0.04212 
-1.39302 -1.20739 -0.94308 
0.00079 -1.04502 1.72533 
0.30256 -0.54161 1.94553 
-0.89806 -1.38984 1.16239 
-0.30192 -0.53952 1.94926 
-1.20486 -0.89797 1.34880 
-1.39343 -1.20437 0.85563 
-1.76325 0.00094 1.00424 
-1.95184 0.30606 0.51037 
-1.95172 -0.30533 0.51066 
-1.76118 -0.00136 -1.09493 
-1.95079 0.30478 -0.60143 
-1.95064 -0.30665 -0.60094 
-0.00108 1.87142 0.78984 
0.25921 1.77190 0.95126 
0.15850 1.61134 1.21203 
-0.16427 1.61127 1.21164 
-0.26252 1.77197 0.95067 
0.00120 1.87252 -0.87917 
0.26239 1.77280 -1.04012 
0.16292 1.61127 -1.30095 
-0.15975 1.61119 -1.30121 
-0.25969 1.77268 -1.04056 
1.61193 1.25725 0.11899 
1.61276 1.25736 -0.20355 
1.87340 0.83530 -0.04165 
1.77293 0.99643 0.21906 
1.77435 0.99651 -0.30284 
1.87344 -0.83363 -0.03944 
1.61312 -1.25599 -0.20042 
1.61209 -1.25498 0.12238 
1.77285 -0.99401 0.22185 
1.77461 -0.99544 -0.30040 
0.26358 -1.77412 -1.03661 
0.00252 -1.87370 -0.87546 
0.16397 -1.61321 -1.29783 
-0.15869 -1.61335 -1.29814 
-0.25847 -1.77440 -1.03714 
0.26187 -1.76570 0.95588 
0.00168 -1.86688 0.79436 
0.16196 -1.60303 1.21623 
-0.15991 -1.60383 1.21533 
-0.25909 -1.76687 0.95467 
0.99677 0.26818 1.74408 
1.25382 0.16568 1.57793 
1.25419 -0.15251 1.57863 
0.99928 -0.24910 1.74466 
0.82416 0.01240 1.86153 
-0.99959 0.26019 1.73743 
-1.00498 -0.25872 1.73101 
-0.83352 0.00195 1.84612 
-1.25880 0.16133 1.57010 
-1.26038 -0.15866 1.56741 
0.99890 0.25978 -1.81471 
1.25990 0.16031 -1.65327 
1.25999 -0.16233 -1.65296 
0.99904 -0.26223 -1.81422 
0.83768 -0.00136 -1.91417 
-0.99417 0.25923 -1.81630 
-0.99401 -0.26277 -1.81583 
-0.83267 -0.00181 -1.91550 
-1.25536 0.15961 -1.65530 
-1.25526 -0.16303 -1.65501 
-1.61194 1.25736 0.11571 
-1.61176 1.25716 -0.20674 
-1.77346 0.99655 0.21530 
-1.77312 0.99613 -0.30639 
-1.87309 0.83509 -0.04559 
-1.61099 -1.25823 -0.20473 
-1.61113 -1.25778 0.11758 
-1.77292 -0.99676 0.21665 
-1.77259 -0.99743 -0.30483 
-1.87270 -0.83585 -0.04437 
0.00010 2.03110 0.24547 
0.00074 2.03167 -0.33463 
0.28492 2.02599 0.10403 
-0.28437 2.02606 0.10349 
0.28532 2.02631 -0.19262 
-0.28411 2.02631 -0.19314 
0.77995 1.73257 0.72881 
1.24996 1.55379 0.43970 
0.80475 1.82698 0.42620 
0.97943 1.54240 0.88705 
1.04509 1.73560 0.27830 
1.21976 1.45089 0.73917 
0.48027 1.25450 1.51009 
0.77123 0.78939 1.69635 
0.77933 1.22286 1.40873 
0.32006 1.05500 1.69365 
0.92801 0.98485 1.50173 
0.46541 0.81205 1.79609 
-0.49008 1.25239 1.50896 
-0.77995 0.78036 1.69524 
-0.33302 1.05239 1.69216 
-0.78725 1.22039 1.40726 
-0.47992 0.80737 1.79190 
-0.93548 0.97983 1.50067 
-0.78195 1.73278 0.72733 
-1.25083 1.55410 0.43732 
-0.80535 1.82725 0.42467 
-0.98245 1.54237 0.88529 
-1.04527 1.73585 0.27631 
-1.22196 1.45105 0.73696 
0.78270 1.73345 -0.81650 
1.25206 1.55431 -0.52577 
0.80642 1.82774 -0.51371 
1.04636 1.73609 -0.36504 
0.98305 1.54296 -0.97396 
1.22312 1.45141 -0.82531 
0.48493 1.24987 -1.59731 
0.77545 0.78017 -1.77582 
0.78461 1.22067 -1.49428 
0.32397 1.04425 -1.77899 
0.93317 0.98049 -1.58558 
0.47252 0.80407 -1.87026 
-0.48111 1.24959 -1.59808 
-0.77109 0.77973 -1.77706 
-0.31976 1.04407 -1.77951 
-0.78090 1.22024 -1.49554 
-0.46804 0.80381 -1.87101 
-0.92919 0.97997 -1.58708 
-0.78033 1.73315 -0.81785 
-1.25020 1.55398 -0.52805 
-0.80461 1.82756 -0.51515 
-1.04486 1.73593 -0.36696 
-0.98033 1.54252 -0.97563 
-1.22062 1.45091 -0.82745 
2.03258 0.29077 -0.04098 
2.03255 -0.28928 -0.04019 
2.02626 0.14927 0.24393 
2.02811 0.14880 -0.32559 
2.02620 -0.14720 0.24436 
2.02813 -0.14792 -0.32522 
1.73147 0.77337 0.73945 
1.55068 0.48444 1.21005 
1.54055 0.93106 0.93911 
1.44828 0.78343 1.17969 
1.82546 0.47102 0.76394 
1.73289 0.32331 1.00434 
1.73574 0.77307 -0.82306 
1.55685 0.48238 -1.29239 
1.54539 0.93071 -1.02341 
1.45388 0.78206 -1.26338 
1.83014 0.47014 -0.84679 
1.73870 0.32149 -1.08680 
1.25287 -1.55382 -0.52221 
0.78380 -1.73391 -0.81284 
1.04737 -1.73523 -0.36100 
1.22391 -1.45167 -0.82217 
0.80760 -1.82743 -0.50966 
0.98397 -1.54368 -0.97074 
1.25037 -1.55012 0.44426 
0.78120 -1.72733 0.73392 
1.04599 -1.73259 0.28302 
1.21984 -1.44573 0.74393 
0.80601 -1.82342 0.43118 
0.97996 -1.53606 0.89220 
1.73084 -0.76935 0.74215 
1.54995 -0.47767 1.21226 
1.82497 -0.46725 0.76563 
1.73242 -0.31842 1.00565 
1.53972 -0.92566 0.94266 
1.44730 -0.77636 1.18314 
1.73606 -0.77322 -0.82137 
1.55710 -0.48357 -1.29142 
1.83033 -0.47034 -0.84577 
1.73885 -0.32221 -1.08613 
1.54584 -0.93133 -1.02145 
1.45429 -0.78323 -1.26181 
0.00238 -2.03160 -0.33036 
0.00213 -2.02926 0.25011 
0.28694 -2.02555 -0.18812 
0.28670 -2.02429 0.10876 
-0.28236 -2.02619 -0.18895 
-0.28240 -2.02510 0.10783 
0.48569 -1.25218 -1.59492 
0.77590 -0.78266 -1.77435 
0.78533 -1.22262 -1.49190 
0.93374 -0.98254 -1.58369 
0.32459 -1.04700 -1.77703 
0.47299 -0.80690 -1.86876 
-0.48032 -1.25249 -1.59577 
-0.77060 -0.78309 -1.77563 
-0.31912 -1.04718 -1.77758 
-0.78012 -1.22314 -1.49331 
-0.46755 -0.80715 -1.86953 
-0.92857 -0.98311 -1.58530 
-0.77909 -1.73486 -0.81461 
-1.24912 -1.55550 -0.52531 
-0.80321 -1.82871 -0.51170 
-0.97928 -1.54466 -0.97282 
-1.04352 -1.73699 -0.36379 
-1.21964 -1.45294 -0.82487 
0.48334 -1.24131 1.51532 
0.77378 -0.77293 1.70033 
0.78010 -1.21097 1.41429 
0.92829 -0.97222 1.50662 
0.32580 -1.03886 1.69944 
0.46981 -0.79170 1.80280 
-0.48231 -1.24449 1.51174 
-0.77341 -0.78039 1.69257 
-0.32387 -1.04163 1.69707 
-0.78010 -1.21532 1.40893 
-0.46683 -0.79594 1.80036 
-0.92933 -0.97807 1.49907 
-0.77906 -1.73032 0.73061 
-1.24916 -1.55356 0.43973 
-0.80314 -1.82602 0.42821 
-1.04348 -1.73545 0.27944 
-0.97922 -1.53987 0.88767 
-1.21972 -1.44972 0.73880 
0.34339 -0.27346 2.13961 
-0.12656 -0.28518 2.38616 
0.37080 -0.05955 2.20796 
0.11676 0.21135 2.34148 
-0.09675 -0.46703 2.18328 
-0.32247 -0.33493 2.17850 
-1.55553 0.48309 1.20543 
-1.73430 0.77354 0.73544 
-1.45281 0.78216 1.17647 
-1.54400 0.93091 0.93585 
-1.73729 0.32259 0.99921 
-1.82877 0.47087 0.75924 
-1.55480 -0.48154 1.20414 
[...]
CELL_DATA 1954
SCALARS Strain double 
LOOKUP_TABLE default 
-0.08831
-0.08726
-0.09018
-0.08730
-0.08857
-0.08790
-0.08741
-0.08768
-0.08764
-0.08746
-0.08793
-0.08778
-0.08795
-0.08769
-0.08772
-0.08836
-0.08794
-0.08793
-0.08714
-0.08725
-0.08736
-0.08774
-0.08773
-0.08749
-0.08757
-0.08973
-0.08664
-0.08656
-0.08852
-0.08837
-0.10189
-0.07248
-0.06404
-0.10785
-0.05582
-0.09620
-0.10057
-0.06572
-0.07955
-0.07229
-0.08748
-0.08754
-0.08752
-0.08749
-0.08750
-0.08750
-0.08749
-0.08758
-0.08763
-0.08761
-0.08759
-0.08783
-0.08815
-0.08786
-0.08744
-0.08765
-0.08751
-0.08842
-0.08817
-0.08710
-0.03461
-0.03462
0.06899
0.06921
0.06925
0.06919
-0.03475
-0.03471
0.06861
0.06921
0.06919
0.06830
-0.03114
-0.04069
0.07199
0.06196
0.07447
0.07874
-0.02432
-0.03067
0.05732
0.06925
0.07036
0.06210
-0.03579
-0.03529
0.06975
0.06935
0.06914
0.06973
-0.03402
-0.03409
0.06939
0.06907
0.06911
0.06944
-0.03412
-0.03408
0.06933
0.06973
0.06971
0.06940
-0.03411
-0.03408
0.06967
0.06927
0.06934
0.06962
-0.03411
-0.03417
0.06951
0.06900
0.06906
0.06958
-0.03466
-0.03476
0.06932
0.06949
0.06969
0.06928
-0.03345
-0.03280
0.06752
0.06971
0.06988
0.06673
-0.03427
-0.03423
0.06962
0.06954
0.06945
0.06967
-0.03410
-0.03399
0.06971
0.06923
0.06910
0.06953
-0.03581
-0.03660
0.07116
0.06812
0.06897
0.07213
-0.03200
-0.03091
0.07002
0.06594
0.06630
0.06903
-0.03408
-0.03411
0.06941
0.06960
0.06951
0.06952
-0.03408
-0.03389
0.06865
0.06946
0.06965
0.06855
-0.03415
-0.03410
0.06945
0.06971
0.06971
0.06949
-0.03400
-0.03400
0.06962
0.06928
0.06936
0.06957
-0.03424
-0.03425
0.06986
0.06906
0.06898
0.06985
-0.02472
-0.04034
0.07892
0.06865
0.05015
0.08611
-0.03056
-0.04901
0.05421
0.08082
0.09472
0.07807
-0.03439
-0.03393
0.06860
0.06912
0.06969
0.06822
0.21431
0.02634
-0.20099
-0.08712
0.01912
-0.09449
-0.03325
-0.03408
0.06899
0.06825
0.06817
0.06966
-0.03528
-0.03545
0.06933
0.06950
0.06969
0.06882
-0.03403
-0.03404
0.06951
0.06952
0.06955
0.06951
-0.03436
-0.03440
0.06938
0.06977
0.06982
0.06923
-0.03441
-0.03451
0.06940
0.06987
0.06989
0.06931
-0.03347
-0.03339
0.06900
0.06846
0.06862
0.06898
-0.06615
-0.04544
0.07845
0.07963
0.03382
0.03317
-0.06539
-0.04512
0.07806
0.07860
0.03334
0.03225
-0.06948
-0.04859
0.07779
0.08279
0.03596
0.03074
-0.06476
-0.04256
0.08117
0.07551
0.02654
0.03245
-0.06688
-0.04650
0.08003
0.07773
0.03310
0.03511
-0.06604
-0.04543
0.07976
0.07982
0.03410
0.03407
-0.06544
-0.04481
0.07977
0.07943
0.03370
0.03410
-0.06568
-0.04499
0.07953
0.08007
0.03439
0.03398
-0.06565
-0.04496
0.08004
0.07950
0.03394
0.03432
-0.06552
-0.04489
0.07984
0.07941
0.03368
0.03416
-0.06610
-0.04553
0.07961
0.07909
0.03361
0.03404
-0.06575
-0.04500
0.07949
0.07959
0.03386
0.03382
-0.06606
-0.04543
0.07962
0.07961
0.03407
0.03393
-0.06558
-0.04467
0.07880
0.07960
0.03372
0.03283
-0.06578
-0.04512
0.07968
0.07961
0.03407
0.03411
-0.06645
-0.04571
0.08017
0.07967
0.03417
0.03435
-0.06588
-0.04507
0.08034
0.07935
0.03358
0.03437
-0.06628
-0.04607
0.08084
0.07839
0.03333
0.03575
-0.06475
-0.04355
0.08008
0.07788
0.03203
0.03381
-0.06538
-0.04483
0.07961
0.07945
0.03391
0.03403
-0.06538
-0.04475
0.07955
0.07971
0.03409
0.03395
-0.06577
-0.04504
0.07947
0.08008
0.03432
0.03377
-0.06574
-0.04503
0.07973
0.08004
0.03439
0.03412
-0.06551
-0.04484
0.07999
0.07952
0.03394
0.03424
-0.06566
-0.04504
0.08010
0.07947
0.03380
0.03438
-0.06813
-0.04755
0.07951
0.08126
0.03537
0.03407
-0.06487
-0.04448
0.07944
0.07807
0.03248
0.03387
-0.06408
-0.04273
0.08080
0.07688
0.03034
0.03323
-0.06732
-0.04721
0.07839
0.08149
0.03634
0.03363
-0.06611
-0.04525
0.07808
0.08062
0.03432
0.03249
-0.06291
-0.03970
0.08412
0.08469
0.03576
0.03482
-0.06023
-0.04237
0.08185
0.07401
0.03226
0.03736
-0.05600
-0.03970
0.07408
0.07628
0.03470
0.03162
-0.05980
-0.03581
0.07415
0.08315
0.03905
0.02145
0.00368
0.26695
0.15483
0.15705
0.02641
0.02625
-0.06994
-0.04485
0.08858
0.08044
0.03264
0.04087
-0.05443
-0.04133
0.07052
0.08225
0.03817
0.03087
-0.01831
0.10236
0.15863
0.02655
0.02686
-0.06111
-0.04269
0.08090
0.07513
0.03086
0.03593
-0.06352
-0.04534
0.07838
0.07937
0.03520
0.03325
-0.06552
-0.04488
0.07991
0.07979
0.03407
0.03426
-0.06563
-0.04502
0.07987
0.07996
0.03428
0.03415
-0.06558
-0.04495
0.07995
0.07985
0.03413
0.03425
-0.06553
-0.04489
0.07990
0.07983
0.03413
0.03426
-0.06552
-0.04485
0.07983
0.07986
0.03419
0.03417
-0.06553
-0.04489
0.07972
0.07981
0.03419
0.03398
-0.06550
-0.04483
0.07974
0.07978
0.03416
0.03400
-0.06558
-0.04489
0.07979
0.07980
0.03415
0.03417
-0.06573
-0.04514
0.07975
0.07999
0.03429
0.03401
-0.06573
-0.04515
0.07972
0.08001
0.03434
0.03401
-0.06583
-0.04557
0.07937
0.07947
0.03392
0.03402
-0.06582
-0.04508
0.07930
0.07995
0.03412
0.03369
-0.06622
-0.04538
0.07942
0.07980
0.03389
0.03390
-0.06592
-0.04526
0.08007
0.07927
0.03387
0.03451
-0.06530
-0.04445
0.07964
0.07899
0.03310
0.03379
-0.06572
-0.04508
0.07898
0.08023
0.03451
0.03352
-0.06545
-0.04470
0.07880
0.07973
0.03377
0.03306
-0.06674
-0.04624
0.08012
0.07926
0.03393
0.03469
-0.06618
-0.04544
0.08028
0.07944
0.03398
0.03468
-0.06497
-0.04422
0.07907
0.07920
0.03332
0.03338
0.07131
0.07117
0.02009
0.01988
0.01676
0.01687
0.07175
0.07194
0.01972
0.01973
0.01665
0.01670
0.07181
0.07185
0.02033
0.01997
0.01677
0.01707
0.07184
0.07194
0.02034
0.01993
0.01670
0.01714
0.07174
0.07221
0.01931
0.01937
0.01724
0.01476
0.07164
0.07159
0.02004
0.02010
0.01685
0.01698
0.07068
0.07044
0.02045
0.01995
0.01684
0.01733
0.08756
0.08814
0.01456
0.00956
0.00798
0.00722
0.07315
0.07260
0.02094
0.01889
0.01578
0.01742
0.09892
-0.15269
0.06028
0.02561
0.06435
0.02558
0.07181
0.07195
0.01544
0.02293
0.01895
0.01359
0.07772
-0.11294
0.03403
0.02589
0.05174
0.02599
0.06754
0.07001
0.02472
0.01854
0.01722
0.01984
0.07150
0.07147
0.02030
0.02024
0.01685
0.01714
0.07181
0.07121
0.02090
0.01949
0.01513
0.01860
0.07168
0.07176
0.02044
0.02068
0.01746
0.01731
0.07200
0.07207
0.02016
0.02049
0.01740
0.01703
0.07224
0.07222
0.02036
0.02033
0.01721
0.01723
0.07218
0.07212
0.02032
0.02056
0.01735
0.01708
0.07196
0.07200
0.02059
0.02048
0.01726
0.01741
0.07170
0.07163
0.02057
0.02049
0.01735
0.01733
0.07192
0.07198
0.02054
0.02046
0.01726
0.01739
0.07207
0.07199
0.02023
0.02058
0.01738
0.01699
0.07216
0.07222
0.02006
0.02034
0.01726
0.01694
0.07194
0.07215
0.02056
0.01900
0.01571
0.01759
0.07190
0.07190
0.02024
0.02046
0.01727
0.01709
0.07244
0.07263
0.02064
0.01847
0.01552
0.01769
0.07179
0.07184
0.02051
0.02032
0.01723
0.01725
0.06907
0.06880
0.02210
0.02111
0.01780
0.01810
0.07219
0.07217
0.02042
0.02038
0.01714
0.01723
0.07254
0.07301
0.01966
0.02000
0.01709
0.01616
0.07184
0.07193
0.02053
0.02045
0.01738
0.01727
0.07144
0.07129
0.02053
0.02054
0.01724
0.01756
0.07196
0.07194
0.02033
0.02068
0.01745
0.01722
0.06983
0.06917
0.02285
0.01946
0.01543
0.02056
0.07166
0.07180
0.02135
0.01892
0.01592
0.01784
0.07600
0.07798
0.02088
0.01450
0.01450
0.01476
0.07043
0.06864
0.01809
0.02501
0.02136
0.01518
0.07211
0.07217
0.02051
0.02042
0.01724
0.01728
0.07230
0.07237
0.02003
0.02012
0.01697
0.01682
0.07100
0.07102
0.02043
0.02036
0.01704
0.01743
0.07221
0.07218
0.02047
0.02033
0.01721
0.01731
0.07203
0.07205
0.02058
0.02046
0.01725
0.01739
0.07171
0.07163
0.02050
0.02067
0.01749
0.01727
0.07193
0.07198
0.02052
0.02050
0.01733
0.01737
0.07202
0.07196
0.02023
0.02066
0.01749
0.01697
0.07143
0.07145
0.02081
0.01999
0.01682
0.01753
0.07236
0.07237
0.01996
0.02037
0.01723
0.01689
0.08266
0.08205
0.01707
0.02214
0.01442
0.01387
0.10559
-0.03189
0.07321
0.02612
0.07626
0.02634
0.07664
0.07357
0.01819
0.01928
0.01301
0.01800
0.12647
0.02241
0.08160
0.02634
0.08826
0.02619
0.07539
0.07333
0.01883
0.01944
0.01435
0.01613
0.07080
0.07130
0.01934
0.02061
0.01781
0.01618
0.07150
0.07201
0.02053
0.01949
0.01614
0.01671
0.07194
0.07167
0.02054
0.01927
0.01605
0.01767
0.07105
0.07093
0.02108
0.01955
0.01645
0.01786
0.07237
0.07239
0.02022
0.02026
0.01701
0.01691
0.07155
0.07133
0.02092
0.02008
0.01695
0.01782
0.07170
0.07158
0.02103
0.01980
0.01677
0.01785
0.06917
0.07125
-0.00584
-0.00699
0.07031
-0.00649
-0.00834
0.07162
-0.00476
-0.00624
0.06854
-0.01031
-0.00687
-0.00682
-0.00506
0.07104
0.07110
-0.00567
-0.00572
0.07074
-0.00616
-0.00582
0.07128
-0.00553
-0.00590
0.07072
-0.00593
-0.00559
-0.00617
-0.00577
0.07086
0.07049
-0.00612
-0.00584
0.07073
-0.00612
-0.00600
0.07082
0.07081
-0.00587
-0.00594
-0.00620
-0.00653
-0.00590
-0.00597
0.07127
0.07093
-0.00551
-0.00548
0.07170
0.07047
-0.00631
-0.00544
0.06987
-0.00640
-0.00473
-0.00716
-0.00611
-0.00628
-0.00597
0.07086
0.07096
-0.00588
-0.00593
0.07129
-0.00554
-0.00592
0.07123
-0.00551
-0.00574
0.07077
-0.00595
-0.00568
-0.00601
-0.00558
0.07081
0.07186
-0.00468
-0.00535
0.06912
-0.00782
-0.00627
0.06864
-0.00887
-0.00639
0.07255
-0.00366
-0.00672
-0.00507
-0.00752
0.07164
0.09617
-0.00359
-0.00852
0.05644
-0.00626
0.00071
0.05970
-0.00564
-0.00646
0.11460
0.00126
-0.03124
-0.04090
-0.04648
0.08137
0.07561
-0.00008
0.00119
0.10411
0.06036
-0.02801
-0.00965
-0.02132
-0.03605
0.06244
-0.01062
-0.00056
-0.00093
-0.00847
0.07111
0.07108
-0.00577
-0.00567
0.07116
-0.00564
-0.00572
0.07110
-0.00575
-0.00566
0.07111
-0.00573
-0.00568
-0.00569
-0.00571
0.07103
0.07101
-0.00575
-0.00586
0.07104
0.07099
-0.00577
-0.00585
-0.00572
-0.00571
0.07117
-0.00565
-0.00585
-0.00562
-0.00586
0.07054
0.07084
-0.00601
-0.00619
0.07122
-0.00577
-0.00616
0.07097
-0.00589
-0.00576
0.07040
-0.00607
-0.00545
-0.00661
-0.00605
0.07008
0.07147
-0.00546
-0.00643
0.07133
-0.00588
-0.00687
0.07057
-0.00586
-0.00519
0.07052
-0.00593
-0.00519
-0.00665
-0.00643
0.05595
0.05568
0.07635
0.07691
0.05607
0.05611
0.07710
0.07713
-0.01511
-0.01650
0.04931
-0.01516
-0.01658
0.04922
-0.01650
0.04926
-0.01653
0.04941
0.05565
0.05513
0.07594
0.07615
0.05555
0.05608
0.07699
0.07632
-0.01518
-0.01641
0.04912
-0.01510
-0.01670
0.04786
-0.01652
0.04906
-0.01661
0.04932
0.05363
0.04550
0.07248
0.08311
0.05333
0.07064
0.07962
0.06807
-0.01846
-0.01626
0.05092
-0.00044
-0.02111
0.02331
-0.01611
0.04839
-0.02950
0.02889
0.04060
0.04819
0.07990
0.07011
0.05036
0.05950
0.08008
0.07247
0.00462
-0.01508
0.01590
-0.01191
-0.01091
0.04396
-0.01503
0.03402
-0.01600
0.05196
0.05553
0.05728
0.07752
0.07591
0.05624
0.05639
0.07692
0.07701
-0.01551
-0.01702
0.04899
-0.01678
-0.01896
0.05042
-0.01658
0.04956
-0.01724
0.05032
0.05584
0.05626
0.07717
0.07683
0.05611
0.05592
0.07684
0.07711
-0.01468
-0.01601
0.04915
-0.01616
0.04937
-0.01448
-0.01583
0.04963
-0.01595
0.04931
0.05654
0.05616
0.07701
0.07749
0.05617
0.05647
0.07740
0.07717
-0.01458
-0.01601
0.04984
-0.01463
-0.01607
0.04955
-0.01593
0.04944
-0.01598
0.04981
0.05611
0.05646
0.07745
0.07696
0.05640
0.05610
0.07711
0.07730
-0.01462
-0.01605
0.04951
-0.01456
-0.01598
0.04973
-0.01599
0.04977
-0.01593
0.04936
0.05580
0.05635
0.07726
0.07681
0.05628
0.05585
0.07673
0.07734
-0.01469
-0.01605
0.04907
-0.01614
0.04948
-0.01461
-0.01594
0.04972
-0.01608
0.04924
0.05633
0.05607
0.07705
0.07711
0.05618
0.05640
0.07756
0.07704
-0.01568
-0.01697
0.04988
-0.01486
-0.01621
0.04940
-0.01723
0.04962
-0.01634
0.04960
0.05606
0.05434
0.07572
0.07719
0.05407
0.05763
0.07829
0.07339
-0.01405
-0.01571
0.04943
-0.01507
0.04783
-0.01411
-0.01574
0.04749
-0.01532
0.05028
0.05629
0.05640
0.07726
0.07711
0.05644
0.05628
0.07729
0.07741
-0.01479
-0.01622
0.04972
-0.01613
0.04973
-0.01476
-0.01619
0.04975
-0.01610
0.04956
0.05581
0.05642
0.07760
0.07688
0.05635
0.05607
0.07691
0.07718
-0.01462
-0.01619
0.04892
-0.01449
-0.01599
0.04963
-0.01591
0.04990
-0.01581
0.04949
0.05546
0.05843
0.07861
0.07574
0.05773
0.05587
0.07685
0.07912
-0.01630
-0.01720
0.04924
-0.01687
-0.01749
0.05267
-0.01793
0.05060
-0.01970
0.04767
0.05345
0.05598
0.07762
0.07458
0.05689
0.05304
0.07290
0.07598
-0.01329
-0.01515
0.04702
-0.01395
0.05031
-0.01141
-0.01365
0.04847
-0.01190
0.04656
0.05628
0.05626
0.07708
0.07710
0.05625
0.05638
0.07738
0.07727
-0.01462
-0.01596
0.04969
-0.01603
0.04951
-0.01462
-0.01596
0.04970
-0.01603
0.04964
0.05640
0.05567
0.07669
0.07748
0.05507
0.05626
0.07700
0.07589
-0.01434
-0.01593
0.04958
-0.01547
0.04855
-0.01469
-0.01619
0.04894
-0.01592
0.04980
0.05653
0.05627
0.07717
0.07747
0.05626
0.05646
0.07739
0.07724
-0.01463
-0.01608
0.04983
-0.01597
0.04957
-0.01464
-0.01608
0.04964
-0.01599
0.04979
0.05612
0.05639
0.07739
0.07698
0.05636
0.05612
0.07713
0.07726
-0.01454
-0.01594
0.04952
-0.01446
-0.01585
0.04967
-0.01593
0.04974
-0.01585
0.04937
0.05587
0.05659
0.07757
0.07685
0.05668
0.05577
0.07657
0.07763
-0.01488
-0.01626
0.04918
-0.01467
-0.01603
0.04991
-0.01629
0.04998
-0.01609
0.04920
0.04565
0.04835
0.07679
0.07569
0.05572
0.06679
0.07107
0.06114
-0.01799
-0.01299
0.04673
-0.01528
0.05310
0.00979
-0.01258
0.02187
-0.03551
0.01729
0.05302
0.05040
0.07857
0.07769
0.08015
0.05423
0.06319
0.08308
0.00414
-0.01837
0.03021
-0.02251
-0.01629
0.05231
-0.04636
0.01204
-0.01843
0.04991
0.05608
0.05514
0.07592
0.07741
0.05556
0.05560
0.07642
0.07660
-0.01455
-0.01607
0.04924
-0.01573
0.04897
-0.01440
-0.01689
0.04729
-0.01576
0.04925
-0.24892
-0.14939
-0.02664
-0.25505
-0.15119
-0.03786
-0.30604
0.10449
-0.22892
-0.04605
-0.08027
0.06094
0.05423
0.05682
0.07697
0.07469
0.05589
0.05565
0.07651
0.07729
-0.01320
-0.01320
0.04839
-0.01555
0.04811
-0.01546
-0.01674
0.04956
-0.01696
0.04947
0.05635
0.05558
0.07702
0.07715
0.05606
0.05671
0.07741
0.07661
-0.01622
-0.01791
0.04848
-0.01745
0.05013
-0.01562
-0.01657
0.04862
-0.01713
0.05005
0.05633
0.05631
0.07725
0.07728
0.05631
0.05633
0.07724
0.07723
-0.01452
-0.01590
0.04962
-0.01593
0.04963
-0.01453
-0.01591
0.04962
-0.01594
0.04967
0.05651
0.05611
0.07715
0.07749
0.05611
0.05666
0.07752
0.07684
-0.01490
-0.01625
0.04980
-0.01634
0.04957
-0.01489
-0.01623
0.04930
-0.01633
0.05006
0.05658
0.05614
0.07714
0.07752
0.05617
0.05677
0.07767
0.07698
-0.01496
-0.01626
0.04991
-0.01645
0.04956
-0.01499
-0.01628
0.04939
-0.01651
0.05011
0.05520
0.05586
0.07691
0.07635
0.05561
0.05546
0.07632
0.07664
-0.01396
-0.01553
0.04842
-0.01529
0.04899
-0.01396
-0.01544
0.04922
-0.01533
0.04895
-0.01775
-0.01742
-0.01788
-0.01827
0.08441
0.08542
-0.01679
-0.01982
0.08334
-0.02343
-0.01751
0.09226
-0.01535
-0.01929
0.08251
-0.01767
-0.01715
-0.01768
-0.01721
0.08548
0.08555
-0.01699
-0.01725
0.08525
-0.01732
-0.01729
0.08582
-0.01721
-0.01708
0.08522
-0.01765
-0.01745
-0.01777
-0.01712
0.08523
0.08441
-0.01724
-0.01745
0.08552
-0.01809
-0.01715
-0.01740
-0.01740
0.08548
0.08540
-0.01857
-0.01668
-0.01764
-0.01706
0.08607
0.08537
-0.01759
-0.01801
-0.01731
-0.01705
0.08637
0.08533
-0.01806
-0.01559
0.08338
-0.01703
-0.01727
-0.01697
-0.01733
0.08513
0.08549
-0.01744
-0.01742
0.08590
-0.01734
-0.01716
0.08578
-0.01705
-0.01719
0.08524
-0.01924
-0.01638
-0.02054
-0.01647
0.08522
0.08730
-0.01688
-0.01746
0.08419
-0.01436
-0.01914
0.08574
-0.01917
-0.01774
0.08621
-0.01761
-0.01577
0.01398
-0.06183
0.08774
0.04843
-0.01661
-0.01380
0.08174
-0.01192
-0.01755
0.08270
0.03257
-0.09787
0.00663
-0.01103
-0.02332
-0.02023
-0.01244
0.07063
0.08375
0.02753
-0.09066
-0.01612
-0.01971
0.02059
0.08805
-0.01817
-0.01651
0.08470
-0.01710
-0.01728
-0.01715
-0.01710
0.08569
0.08556
-0.01725
-0.01720
0.08575
-0.01721
-0.01713
0.08568
-0.01716
-0.01711
0.08561
-0.01717
-0.01716
-0.01711
-0.01738
0.08551
0.08557
-0.01713
-0.01717
-0.01706
-0.01737
0.08553
0.08554
-0.01736
-0.01737
0.08585
-0.01746
-0.01740
-0.01773
-0.01734
0.08508
0.08505
-0.01738
-0.01757
0.08578
-0.01817
-0.01697
0.08548
-0.01754
-0.01676
0.08493
-0.01745
-0.01690
-0.01731
-0.01775
0.08480
0.08599
-0.01712
-0.01849
0.08528
-0.01827
-0.01652
0.08473
-0.01782
-0.01657
0.08515
0.04789
0.04808
0.04789
0.04820
0.04810
0.04777
0.04777
0.04675
0.04844
0.10182
-0.02449
-0.02283
0.04982
0.04503
0.04825
0.04811
0.04842
0.04853
0.04854
0.04834
0.04831
0.04804
0.04840
0.04850
0.04858
0.04886
0.04605
0.04829
0.04818
0.04848
0.04895
0.04746
0.04818
0.04831
0.04832
0.04852
0.04579
0.05216
0.04605
0.04866
0.04767
0.04792
0.04851
0.04840
0.04832
0.04803
0.04836
0.04865
0.10786
-0.03351
-0.03465
0.04847
0.04982
0.04629
0.04860
0.04793
0.04718
0.04884
0.04787
0.04804
-0.15135
0.05213
0.08786
-0.09237
0.11552
-0.03095
-0.09004
-0.13154
0.17043
-0.07120
-0.03657
-0.05286
-0.13651
0.16843
0.02104
0.34596
-0.15282
-0.13884
-0.13620
0.05619
-0.14322
0.14571
-0.07623
-0.14593
0.03249
-0.10227
0.02688
0.07712
-0.14380
-0.07718
-0.12939
0.10733
0.00637
-0.12155
0.11033
0.05528
-0.12835
-0.18562
-0.05405
-0.10208
0.10000
