# vtk DataFile Version 3.0
Point representing Sub_cellular elem model
ASCII

DATASET UNSTRUCTURED_GRID
POINTS 709 float
0.00069 1.72669 0.79011 
0.00697 1.73432 -1.36061 
1.74402 1.06857 -0.27735 
1.74549 -1.08410 -0.28167 
0.00514 -1.75008 -1.36212 
-0.00175 -1.74694 0.78410 
1.07530 -0.00809 1.47734 
-1.06321 -0.01275 1.46873 
1.08497 -0.00772 -2.02106 
-1.06848 -0.00719 -2.02932 
-1.73730 1.06888 -0.29079 
-1.74022 -1.08212 -0.29140 
0.00360 2.04349 -0.28434 
1.02647 1.64925 0.35430 
0.63520 1.01283 1.38541 
-0.63180 1.00868 1.37725 
-1.02261 1.64845 0.34543 
1.03175 1.65298 -0.91428 
0.64295 1.01863 -1.94179 
-0.62599 1.01920 -1.94701 
-1.02116 1.65386 -0.92289 
2.05602 -0.00694 -0.27856 
1.65774 0.62458 0.74840 
1.66749 0.62715 -1.30440 
1.03161 -1.66961 -0.91791 
1.02639 -1.66798 0.34704 
1.65833 -0.64091 0.74289 
1.66789 -0.64199 -1.30588 
0.00100 -2.06157 -0.28831 
0.64230 -1.03422 -1.94254 
-0.62716 -1.03393 -1.94699 
-1.02400 -1.66841 -0.92384 
0.63313 -1.02946 1.37748 
-0.63044 -1.03057 1.37583 
-1.02704 -1.66605 0.34326 
0.04016 0.44013 2.13021 
-1.65300 0.62278 0.73621 
-1.65551 -0.63916 0.73588 
0.00941 -0.00773 -2.33555 
-1.65547 0.62811 -1.31729 
-1.65647 -0.64109 -1.31726 
-2.04941 -0.00602 -0.29205 
0.00188 1.95936 0.28646 
0.52372 1.75832 0.61163 
0.32404 1.43423 1.13329 
-0.32308 1.43282 1.12971 
-0.52135 1.75742 0.60682 
0.00539 1.96398 -0.85573 
0.52993 1.76409 -1.17704 
0.33158 1.44056 -1.70117 
-0.31569 1.44093 -1.70388 
-0.51730 1.76468 -1.18150 
1.44894 1.40918 0.04548 
1.45208 1.41072 -0.60180 
1.97434 0.56424 -0.27752 
1.77119 0.88622 0.24600 
1.77661 0.88788 -0.80107 
1.97538 -0.57865 -0.28003 
1.45307 -1.42698 -0.60613 
1.45012 -1.42630 0.03938 
1.77253 -0.90193 0.24104 
1.77763 -0.90280 -0.80394 
0.52869 -1.78049 -1.17959 
0.00316 -1.98061 -0.85837 
0.33035 -1.45620 -1.70229 
-0.31733 -1.45599 -1.70442 
-0.51968 -1.77992 -1.18273 
0.52219 -1.77808 0.60448 
-0.00087 -1.97898 0.28132 
0.32252 -1.45330 1.12569 
-0.32437 -1.45271 1.12533 
-0.52494 -1.77705 0.60306 
0.89866 0.51486 1.50614 
1.41617 0.31347 1.17228 
1.41647 -0.33072 1.16738 
0.90009 -0.53191 1.49621 
0.57559 -0.00391 1.74299 
-0.88948 0.50815 1.49385 
-0.88803 -0.53347 1.49450 
-0.55247 -0.01313 1.74103 
-1.40872 0.31023 1.16122 
-1.40953 -0.33092 1.16125 
0.90374 0.51576 -2.05156 
1.42642 0.31605 -1.72672 
1.42646 -0.33117 -1.72719 
0.90351 -0.53127 -2.05196 
0.58060 -0.00779 -2.25243 
-0.88658 0.51633 -2.05870 
-0.88718 -0.53090 -2.05857 
-0.56238 -0.00752 -2.25685 
-1.41180 0.31684 -1.73771 
-1.41223 -0.33051 -1.73762 
-1.44363 1.40896 0.03377 
-1.44367 1.41145 -0.61352 
-1.76632 0.88568 0.23279 
-1.76740 0.88870 -0.81473 
-1.96763 0.56467 -0.29164 
-1.44673 -1.42526 -0.61427 
-1.44772 -1.42402 0.03258 
-1.76949 -0.89979 0.23219 
-1.76923 -0.90140 -0.81499 
-1.96926 -0.57705 -0.29192 
0.55850 1.94074 0.02348 
-0.55318 1.94068 0.01860 
0.56081 1.94292 -0.58744 
-0.55183 1.94334 -0.59224 
0.89924 1.38115 0.92554 
1.05365 1.75344 -0.27970 
1.39287 1.19464 0.62219 
0.00055 1.04508 1.47799 
1.20372 0.88836 1.11830 
0.30106 0.54129 1.70655 
-0.89679 1.37858 0.91675 
-0.29445 0.53831 1.70254 
-1.19885 0.88431 1.10642 
-1.04672 1.75377 -0.28855 
-1.38910 1.19286 0.61052 
0.90771 1.38721 -1.48637 
1.40106 1.19857 -1.17902 
0.00891 1.04327 -2.04594 
1.21373 0.89283 -1.67397 
0.31488 0.54865 -2.23311 
-0.89359 1.38811 -1.49388 
-0.29628 0.54886 -2.23557 
-1.19898 0.89375 -1.68372 
-1.38938 1.19962 -1.19034 
1.95087 0.29801 0.27780 
1.95672 0.29863 -0.83429 
1.95144 -0.31246 0.27595 
1.95716 -0.31278 -0.83531 
1.75972 -0.00771 0.77031 
1.76949 -0.00727 -1.32922 
1.05376 -1.77123 -0.28515 
1.40146 -1.21419 -1.18170 
0.55956 -1.96051 -0.59160 
0.90720 -1.40310 -1.48833 
1.39344 -1.21237 0.61425 
0.55720 -1.95973 0.01772 
0.89808 -1.39996 0.91659 
1.20309 -0.90686 1.10846 
1.21364 -0.90826 -1.67526 
-0.55502 -1.95961 -0.59449 
-0.55696 -1.95867 0.01543 
0.00792 -1.05859 -2.04619 
0.31444 -0.56418 -2.23325 
-0.89549 -1.40246 -1.49417 
-0.29683 -0.56407 -2.23552 
-1.20018 -0.90766 -1.68362 
-1.05060 -1.76949 -0.29028 
-1.39136 -1.21313 -1.19054 
0.00402 -1.06102 1.47473 
0.30784 -0.54682 1.71218 
-0.89997 -1.39830 0.91454 
-0.28961 -0.56213 1.70725 
-1.20086 -0.90466 1.10585 
-1.39316 -1.20989 0.60941 
-1.75498 -0.00802 0.76029 
-1.94596 0.29802 0.26508 
-1.94715 -0.31131 0.26489 
-1.75760 -0.00641 -1.34213 
-1.94746 0.29949 -0.84842 
-1.94808 -0.31169 -0.84847 
0.00121 1.85934 0.54948 
0.26138 1.75926 0.71149 
0.16155 1.59720 0.97135 
-0.16064 1.59664 0.96972 
-0.25961 1.75867 0.70905 
0.00621 1.86579 -1.11937 
0.26773 1.76602 -1.27954 
0.16884 1.60476 -1.54084 
-0.15383 1.60496 -1.54220 
-0.25434 1.76634 -1.28175 
1.61372 1.24891 -0.11630 
1.61536 1.24957 -0.43897 
1.87568 0.82760 -0.27730 
1.77449 0.98814 -0.01636 
1.77721 0.98905 -0.53837 
1.87702 -0.84256 -0.28084 
1.61672 -1.26546 -0.44341 
1.61518 -1.26517 -0.12149 
1.77597 -1.00376 -0.02098 
1.77851 -1.00421 -0.54199 
0.26612 -1.78214 -1.28153 
0.00419 -1.88191 -1.12139 
0.16730 -1.62044 -1.54216 
-0.15560 -1.62031 -1.54319 
-0.25644 -1.78186 -1.28313 
0.25930 -1.77934 0.70481 
-0.00148 -1.87944 0.54386 
0.15962 -1.61712 0.96454 
-0.16282 -1.61678 0.96430 
-0.26260 -1.77881 0.70419 
1.00165 0.25188 1.50931 
1.25688 0.15114 1.34024 
1.25786 -0.16789 1.33670 
1.00494 -0.26770 1.50214 
0.83646 -0.00571 1.62168 
-0.99069 0.24550 1.49756 
-0.99014 -0.27133 1.49799 
-0.82060 -0.01371 1.61449 
-1.24734 0.14717 1.32989 
-1.24746 -0.17047 1.32999 
1.00508 0.25325 -2.05305 
1.26566 0.15366 -1.89115 
1.26565 -0.16896 -1.89133 
1.00500 -0.26871 -2.05325 
0.84399 -0.00776 -2.15320 
-0.98815 0.25379 -2.06084 
-0.98846 -0.26827 -2.06077 
-0.82652 -0.00736 -2.15964 
-1.25000 0.15432 -1.90086 
-1.25020 -0.16836 -1.90081 
-1.60771 1.24898 -0.12900 
-1.60788 1.25010 -0.45172 
-1.76884 0.98808 -0.02982 
-1.76931 0.98965 -0.55202 
-1.86897 0.82793 -0.29126 
-1.61093 -1.26359 -0.45240 
-1.61127 -1.26300 -0.12985 
-1.77194 -1.00163 -0.03045 
-1.77167 -1.00250 -0.55247 
-1.87130 -0.84070 -0.29170 
0.00270 2.02166 0.00568 
0.00451 2.02405 -0.57452 
0.28763 2.01710 -0.13475 
-0.28137 2.01715 -0.13726 
0.28867 2.01825 -0.43147 
-0.28058 2.01843 -0.43395 
0.78146 1.72143 0.49146 
1.25128 1.54412 0.20403 
0.80655 1.81708 0.18912 
0.98059 1.53062 0.65057 
1.04695 1.72629 0.04203 
1.22061 1.44007 0.50351 
0.48535 1.23944 1.27110 
0.77487 0.77134 1.46373 
0.78206 1.20767 1.17241 
0.32856 1.04022 1.45390 
0.93023 0.96905 1.26742 
0.47156 0.79220 1.56235 
-0.48366 1.23679 1.26530 
-0.76913 0.76600 1.45264 
-0.32654 1.03762 1.44951 
-0.77943 1.20419 1.16377 
-0.46723 0.78764 1.55554 
-0.92591 0.96454 1.25656 
-0.77836 1.72047 0.48447 
-1.24668 1.54360 0.19360 
-0.80208 1.81672 0.18211 
-0.97770 1.52900 0.64173 
-1.04170 1.72614 0.03316 
-1.21700 1.43875 0.49305 
0.78730 1.72619 -1.05411 
1.25566 1.54672 -0.76193 
0.81029 1.82012 -0.75104 
1.04971 1.72823 -0.60159 
0.98787 1.53580 -1.21112 
1.22743 1.44412 -1.06177 
0.49129 1.24329 -1.83634 
0.78187 0.77359 -2.01427 
0.79060 1.21390 -1.73238 
0.33066 1.03786 -2.01865 
0.93920 0.97375 -1.82342 
0.47925 0.79765 -2.10959 
-0.47475 1.24378 -1.84036 
-0.76469 0.77417 -2.02054 
-0.31306 1.03815 -2.02130 
-0.77493 1.21466 -1.73887 
-0.46130 0.79802 -2.11341 
-0.92322 0.97453 -1.83103 
-0.77563 1.72698 -1.06073 
-1.24618 1.54758 -0.77225 
-0.80046 1.82080 -0.75790 
-1.04096 1.72891 -0.61037 
-0.97547 1.53675 -1.21933 
-1.21620 1.44513 -1.07186 
2.03528 0.28323 -0.27796 
2.03585 -0.29725 -0.27926 
2.02848 0.14133 0.00616 
2.03152 0.14149 -0.56282 
2.02879 -0.15535 0.00539 
2.03178 -0.15543 -0.56340 
1.73194 0.76382 0.50355 
1.55127 0.47290 0.97339 
1.54075 0.92028 0.70371 
1.44860 0.77147 0.94433 
1.82616 0.46178 0.52691 
1.73353 0.31320 0.76646 
1.73982 0.76605 -1.05914 
1.56190 0.47556 -1.52925 
1.54993 0.92370 -1.25967 
1.45894 0.77517 -1.50006 
1.83431 0.46318 -1.08326 
1.74334 0.31462 -1.32364 
1.25612 -1.56324 -0.76598 
0.78657 -1.74277 -1.05722 
1.04973 -1.74542 -0.60612 
1.22764 -1.46023 -1.06495 
0.80965 -1.83728 -0.75502 
0.98754 -1.55199 -1.21388 
1.25192 -1.56211 0.19719 
0.78062 -1.74074 0.48410 
1.04705 -1.74463 0.03568 
1.22092 -1.45837 0.49567 
0.80592 -1.83607 0.18257 
0.98009 -1.54953 0.64241 
1.73296 -0.77975 0.49826 
1.55153 -0.48976 0.96793 
1.82685 -0.47699 0.52351 
1.73385 -0.32885 0.76355 
1.54142 -0.93736 0.69646 
1.44877 -0.78906 0.93643 
1.74052 -0.78087 -1.06128 
1.56208 -0.49052 -1.53016 
1.83480 -0.47766 -1.08459 
1.74358 -0.32923 -1.32441 
1.55040 -0.93889 -1.26178 
1.45914 -0.79036 -1.50151 
0.00207 -2.04135 -0.57782 
-0.00001 -2.04055 0.00110 
0.28676 -2.03616 -0.43563 
0.28564 -2.03578 -0.13964 
-0.28360 -2.03566 -0.43702 
-0.28461 -2.03524 -0.14088 
0.49037 -1.25890 -1.83726 
0.78145 -0.78914 -2.01484 
0.78997 -1.22959 -1.73366 
0.93881 -0.98932 -1.82445 
0.32981 -1.05336 -2.01913 
0.47866 -0.81319 -2.10995 
-0.47618 -1.25864 -1.84055 
-0.76558 -0.78882 -2.02042 
-0.31416 -1.05322 -2.02139 
-0.77645 -1.22916 -1.73896 
-0.46215 -0.81301 -2.11335 
-0.92443 -0.98888 -1.83095 
-0.77827 -1.74188 -1.06182 
-1.24917 -1.56176 -0.77309 
-0.80358 -1.83614 -0.75944 
-0.97782 -1.55109 -1.21991 
-1.04434 -1.74392 -0.61173 
-1.21865 -1.45907 -1.07236 
0.48378 -1.25718 1.26308 
0.77472 -0.78947 1.45338 
0.78014 -1.22592 1.16324 
0.92880 -0.98776 1.25691 
0.32874 -1.05536 1.44836 
0.47173 -0.80484 1.55868 
-0.48351 -1.25703 1.26228 
-0.76727 -0.78980 1.45267 
-0.32311 -1.05703 1.44736 
-0.78077 -1.22499 1.16172 
-0.46280 -0.81070 1.55595 
-0.92652 -0.98628 1.25566 
-0.78249 -1.73924 0.48160 
-1.25109 -1.55990 0.19197 
-0.80628 -1.83454 0.17943 
-1.04597 -1.74274 0.03115 
-0.98184 -1.54765 0.63950 
-1.22139 -1.45609 0.49141 
0.21400 -0.45906 1.96038 
0.00511 -0.47512 2.16832 
0.37616 0.20342 2.04073 
0.29528 -0.37910 2.68926 
-0.26325 -0.41220 1.97655 
-0.39946 -0.30000 2.21240 
-1.54555 0.47036 0.96177 
-1.72744 0.76270 0.49080 
-1.44369 0.76851 0.93216 
-1.53651 0.91830 0.69138 
-1.72853 0.31195 0.75516 
-1.82150 0.46098 0.51457 
[...]
CELL_DATA 2119
SCALARS Strain double 
LOOKUP_TABLE default 
-0.08777
-0.08955
-0.08780
-0.08952
-0.08863
-0.08785
-0.08728
-0.08792
-0.08738
-0.08760
-0.08813
-0.08813
-0.08834
-0.08768
-0.08739
-0.08686
-0.08695
-0.08824
-0.08869
-0.08930
-0.08693
-0.08875
-0.08766
-0.08797
-0.08671
-0.08781
-0.08914
-0.08801
-0.08862
-0.08811
-0.09667
-0.07801
-0.06894
-0.10318
-0.07342
-0.10433
-0.10262
-0.06034
-0.06828
-0.07231
-0.08769
-0.08734
-0.08789
-0.08742
-0.08753
-0.08739
-0.08739
-0.08757
-0.08751
-0.08764
-0.08828
-0.08780
-0.08695
-0.08749
-0.08839
-0.08732
-0.08809
-0.08726
-0.08782
-0.08794
-0.03438
-0.03443
0.06940
0.06828
0.06837
0.06948
-0.03746
-0.03679
0.06973
0.07047
0.06999
0.06917
-0.02144
-0.03798
0.07529
0.04711
0.06489
0.08484
-0.02345
-0.04100
0.04589
0.07886
0.08972
0.06561
-0.03674
-0.03629
0.06875
0.07109
0.07024
0.06837
-0.03396
-0.03410
0.06878
0.06947
0.06949
0.06897
-0.03438
-0.03434
0.06959
0.06968
0.06961
0.06960
-0.03385
-0.03385
0.06967
0.06921
0.06930
0.06963
-0.03416
-0.03418
0.06964
0.06910
0.06904
0.06968
-0.03416
-0.03383
0.06970
0.06779
0.06757
0.06951
-0.03293
-0.03225
0.06616
0.06916
0.07034
0.06569
-0.03386
-0.03386
0.06947
0.06904
0.06874
0.06966
-0.03316
-0.03318
0.06702
0.07012
0.07022
0.06747
-0.03475
-0.03502
0.06680
0.07002
0.07024
0.06767
-0.03381
-0.03264
0.06758
0.06815
0.06918
0.06719
-0.03551
-0.03523
0.06984
0.07013
0.07017
0.06997
-0.03645
-0.03662
0.07072
0.06960
0.06955
0.07069
-0.03405
-0.03401
0.06867
0.07006
0.07008
0.06892
-0.03423
-0.03413
0.07006
0.06903
0.06921
0.06999
-0.03308
-0.03317
0.06940
0.06840
0.06827
0.06950
-0.01932
-0.04120
0.08148
0.06913
0.04119
0.09781
-0.02769
-0.04581
0.05129
0.08215
0.09559
0.07103
-0.03606
-0.03573
0.07050
0.06889
0.06976
0.06969
-0.10586
-0.12911
0.39652
-0.13843
0.26737
-0.02831
-0.03007
0.06784
0.06508
0.06386
0.06911
-0.03013
-0.03137
0.07052
0.06511
0.06380
0.07093
-0.03401
-0.03401
0.06955
0.06939
0.06932
0.06951
-0.03419
-0.03419
0.06936
0.06986
0.06994
0.06926
-0.03451
-0.03456
0.06970
0.06989
0.06996
0.06958
-0.03509
-0.03500
0.06979
0.07001
0.06964
0.06962
-0.06573
-0.04513
0.07920
0.07770
0.03218
0.03339
-0.06806
-0.04792
0.07958
0.07834
0.03354
0.03465
-0.06572
-0.04375
0.07650
0.07961
0.03125
0.02762
-0.06790
-0.04584
0.07998
0.07818
0.02977
0.03201
-0.06708
-0.04702
0.07790
0.07936
0.03395
0.03295
-0.06595
-0.04530
0.07926
0.08017
0.03441
0.03362
-0.06532
-0.04470
0.07930
0.07973
0.03396
0.03369
-0.06595
-0.04525
0.07983
0.08008
0.03440
0.03424
-0.06537
-0.04469
0.08005
0.07933
0.03379
0.03431
-0.06565
-0.04499
0.08019
0.07927
0.03363
0.03447
-0.06678
-0.04685
0.08029
0.07861
0.03364
0.03513
-0.06600
-0.04512
0.07999
0.07920
0.03326
0.03425
-0.06629
-0.04534
0.08020
0.07868
0.03293
0.03437
-0.06546
-0.04435
0.07790
0.07999
0.03338
0.03201
-0.06537
-0.04469
0.07945
0.07890
0.03356
0.03404
-0.06492
-0.04441
0.07777
0.07957
0.03377
0.03221
-0.06478
-0.04402
0.07721
0.08033
0.03447
0.03193
-0.06632
-0.04561
0.07723
0.08093
0.03508
0.03206
-0.06664
-0.04548
0.07784
0.08067
0.03434
0.03227
-0.06741
-0.04659
0.07990
0.08051
0.03498
0.03465
-0.06483
-0.04408
0.08053
0.07823
0.03215
0.03455
-0.06728
-0.04700
0.08082
0.08005
0.03465
0.03534
-0.06564
-0.04493
0.07871
0.08072
0.03495
0.03346
-0.06593
-0.04517
0.08073
0.07908
0.03375
0.03498
-0.06459
-0.04388
0.07984
0.07870
0.03272
0.03405
-0.06579
-0.04539
0.07945
0.07723
0.03123
0.03445
-0.06781
-0.04743
0.07925
0.08022
0.03485
0.03367
-0.06482
-0.04152
0.07744
0.07907
0.03192
0.03051
-0.06714
-0.04713
0.07964
0.07963
0.03576
0.03355
-0.06651
-0.04632
0.07996
0.07842
0.03233
0.03421
-0.06227
-0.04407
0.08106
0.07402
0.03584
0.04014
-0.06133
-0.04220
0.08052
0.07388
0.03106
0.03728
-0.05896
-0.04169
0.07654
0.07498
0.03263
0.03459
-0.05605
-0.03838
0.07510
0.07630
0.03622
0.02882
-0.04484
0.15042
0.10976
0.14376
0.02548
0.02555
-0.06541
-0.04540
0.08493
0.08066
0.03515
0.04299
-0.06588
-0.04909
0.08095
0.08744
0.04345
0.04185
-0.01564
0.13833
0.13724
0.02560
0.02571
-0.05462
-0.03695
0.07963
0.07011
0.02784
0.03568
-0.05811
-0.03949
0.08488
0.06980
0.02703
0.03959
-0.06575
-0.04513
0.07970
0.07995
0.03429
0.03416
-0.06535
-0.04469
0.07949
0.07991
0.03410
0.03358
-0.06617
-0.04578
0.08005
0.08012
0.03446
0.03449
-0.06544
-0.04480
0.08009
0.07937
0.03352
0.03439
-0.06552
-0.04484
0.07992
0.07951
0.03392
0.03419
-0.06537
-0.04469
0.07980
0.07977
0.03417
0.03405
-0.06546
-0.04487
0.07970
0.07996
0.03434
0.03389
-0.06556
-0.04486
0.07984
0.07982
0.03421
0.03413
-0.06560
-0.04499
0.07967
0.08021
0.03453
0.03393
-0.06580
-0.04525
0.07989
0.08020
0.03449
0.03418
-0.06678
-0.04663
0.08048
0.07864
0.03352
0.03569
-0.06580
-0.04507
0.07988
0.07951
0.03372
0.03396
-0.06414
-0.04234
0.07781
0.07935
0.03269
0.03145
-0.06559
-0.04499
0.07962
0.07966
0.03401
0.03409
-0.06660
-0.04597
0.07983
0.07998
0.03488
0.03423
-0.06506
-0.04416
0.07918
0.07967
0.03375
0.03338
-0.06648
-0.04620
0.07966
0.07962
0.03471
0.03475
-0.06473
-0.04325
0.07852
0.07975
0.03353
0.03194
-0.06598
-0.04538
0.07986
0.07992
0.03444
0.03430
-0.06621
-0.04572
0.07988
0.07996
0.03457
0.03409
0.07190
0.07203
0.01860
0.02013
0.01702
0.01549
0.07079
0.07095
0.01968
0.02025
0.01697
0.01647
0.07099
0.07112
0.02064
0.02023
0.01704
0.01739
0.07207
0.07211
0.01993
0.01997
0.01686
0.01678
0.07359
0.07467
0.02269
0.01286
0.01246
0.01691
0.07220
0.07203
0.02031
0.01919
0.01566
0.01732
0.07070
0.06955
0.02218
0.01853
0.01399
0.01982
0.09207
0.09036
0.01053
0.01219
0.00650
0.00671
0.06835
0.07014
0.02367
0.01789
0.01561
0.02047
0.11514
-0.00461
0.06188
0.02584
0.09668
0.02556
0.07687
0.07482
0.01354
0.02104
0.01521
0.01289
0.11914
0.12791
0.06692
0.02555
0.09140
0.02553
0.06797
0.06925
0.02814
0.01554
0.01398
0.02327
0.07218
0.07181
0.01998
0.01984
0.01649
0.01683
0.07008
0.06887
0.02319
0.01804
0.01387
0.02152
0.07204
0.07208
0.02008
0.02064
0.01734
0.01699
0.07165
0.07181
0.02058
0.02015
0.01718
0.01742
0.07221
0.07220
0.02058
0.02018
0.01705
0.01740
0.07198
0.07179
0.02061
0.02033
0.01707
0.01743
0.07210
0.07208
0.02053
0.02027
0.01708
0.01738
0.07164
0.07157
0.02059
0.02078
0.01762
0.01736
0.07188
0.07191
0.02053
0.02056
0.01740
0.01737
0.07206
0.07197
0.02029
0.02083
0.01764
0.01705
0.07223
0.07230
0.02020
0.02039
0.01730
0.01702
0.07254
0.07286
0.01919
0.01864
0.01598
0.01601
0.07059
0.07092
0.02062
0.02060
0.01768
0.01746
0.07000
0.07006
0.02033
0.02014
0.01650
0.01763
0.07205
0.07219
0.01875
0.02123
0.01789
0.01585
0.06904
0.06992
0.02231
0.01922
0.01605
0.01828
0.07235
0.07252
0.01963
0.02075
0.01751
0.01615
0.06918
0.06905
0.02082
0.02130
0.01807
0.01774
0.07263
0.07266
0.01862
0.02114
0.01804
0.01579
0.07292
0.07312
0.01805
0.02107
0.01798
0.01452
0.07042
0.07083
0.02079
0.02125
0.01807
0.01762
0.07242
0.07216
0.01908
0.01862
0.01543
0.01694
0.07238
0.07218
0.01740
0.02123
0.01793
0.01428
0.07209
0.07600
0.02256
0.01476
0.01513
0.01628
0.06980
0.06974
0.02055
0.02244
0.01821
0.01683
0.07253
0.07255
0.02083
0.01960
0.01613
0.01765
0.07196
0.07189
0.02169
0.01878
0.01542
0.01850
0.07312
0.07305
0.01993
0.01850
0.01532
0.01662
0.07262
0.07261
0.01999
0.02022
0.01715
0.01697
0.07160
0.07173
0.02073
0.02046
0.01723
0.01756
0.07133
0.07111
0.02123
0.02042
0.01735
0.01798
0.07185
0.07195
0.02070
0.02036
0.01709
0.01755
0.07242
0.07232
0.02006
0.02073
0.01746
0.01674
0.07079
0.07097
0.01986
0.02140
0.01843
0.01655
0.07214
0.07228
0.01971
0.02092
0.01788
0.01662
0.08180
0.08999
0.01339
0.02495
0.02718
0.00160
0.13563
-0.25226
0.07192
0.02538
0.11929
0.02545
0.07759
0.07404
0.01559
0.02137
0.01460
0.01474
0.12427
0.08401
0.07347
0.02520
0.08016
0.02549
0.07255
0.07283
0.02755
0.01419
0.01268
0.02245
0.07091
0.06922
0.02212
0.01926
0.01543
0.02048
0.06607
0.06604
0.02180
0.02450
0.02031
0.01857
0.07220
0.07238
0.01747
0.02184
0.01944
0.01426
0.07328
0.07292
0.01777
0.02123
0.01838
0.01436
0.07248
0.07249
0.02017
0.02044
0.01722
0.01694
0.07176
0.07188
0.02048
0.02046
0.01723
0.01737
0.07201
0.07202
0.02062
0.02023
0.01696
0.01742
0.07043
0.06873
-0.00799
-0.00679
0.06944
-0.00632
-0.00576
0.06972
-0.00817
-0.00896
0.07069
-0.00685
-0.00728
-0.00595
-0.00768
0.07067
0.07143
-0.00543
-0.00602
0.07101
-0.00598
-0.00616
0.07128
-0.00546
-0.00562
0.07056
-0.00614
-0.00564
-0.00619
-0.00545
0.07129
0.06985
-0.00638
-0.00526
0.07042
-0.00659
-0.00559
0.07118
0.07028
-0.00639
-0.00552
-0.00646
-0.00714
-0.00635
-0.00618
0.06926
0.07085
-0.00646
-0.00766
0.06878
0.07145
-0.00584
-0.00786
0.07218
-0.00482
-0.00751
-0.00509
-0.00715
-0.00494
-0.00523
0.07173
0.06985
-0.00739
-0.00555
0.07119
-0.00516
-0.00470
0.07205
-0.00492
-0.00640
0.07017
-0.00610
-0.00481
-0.00713
-0.00596
0.07034
0.06920
-0.00812
-0.00607
0.07076
-0.00553
-0.00639
0.07052
-0.00661
-0.00780
0.06998
-0.00525
-0.00657
-0.00759
-0.00642
0.07005
0.08231
-0.00515
-0.01157
0.05927
-0.00702
-0.00006
0.05670
-0.00814
-0.00280
0.10771
-0.00381
-0.03564
-0.01946
-0.03370
0.10009
0.06889
-0.01484
0.00271
0.09452
0.07382
-0.01000
-0.00089
-0.03373
-0.03176
0.05457
-0.01107
-0.00246
-0.01119
0.00200
0.07084
0.07124
-0.00556
-0.00576
0.07112
-0.00584
-0.00621
0.07126
-0.00547
-0.00554
0.07073
-0.00625
-0.00562
-0.00596
-0.00565
0.07114
0.07096
-0.00577
-0.00575
0.07106
0.07109
-0.00568
-0.00590
-0.00564
-0.00567
0.07134
-0.00545
-0.00591
-0.00548
-0.00571
0.07147
0.07001
-0.00621
-0.00460
0.07045
-0.00644
-0.00575
0.07081
-0.00685
-0.00738
0.07112
-0.00589
-0.00623
-0.00499
-0.00568
0.07089
0.07078
-0.00629
-0.00626
0.07074
-0.00536
-0.00524
0.07079
-0.00645
-0.00682
0.07123
-0.00543
-0.00588
-0.00530
-0.00594
0.05476
0.05593
0.07685
0.07556
0.05642
0.05547
0.07644
0.07746
-0.01489
-0.01627
0.04822
-0.01496
-0.01627
0.04932
-0.01630
0.04968
-0.01642
0.04879
0.05609
0.05709
0.07738
0.07650
0.05607
0.05749
0.07784
0.07634
-0.01695
-0.01837
0.04952
-0.01827
-0.02088
0.04927
-0.01787
0.04968
-0.01860
0.05155
0.04350
0.03767
0.07000
0.07986
0.05910
0.06119
0.07577
0.07692
-0.01556
-0.01052
0.04386
0.01642
-0.01665
0.00477
-0.01709
0.05276
-0.03077
0.00869
0.04087
0.04385
0.07978
0.07234
0.06139
0.06266
0.07908
0.07451
0.01534
-0.01795
0.00815
-0.01792
-0.01249
0.04443
-0.03545
0.00519
-0.01919
0.05550
0.05643
0.05579
0.07599
0.07731
0.05554
0.05800
0.07803
0.07603
-0.01618
-0.01744
0.04957
-0.01785
-0.02017
0.04809
-0.01729
0.04898
-0.01854
0.05253
0.05617
0.05581
0.07662
0.07718
0.05548
0.05634
0.07730
0.07666
-0.01452
-0.01582
0.04949
-0.01607
0.04854
-0.01457
-0.01583
0.04926
-0.01614
0.04970
0.05649
0.05639
0.07729
0.07748
0.05641
0.05639
0.07724
0.07734
-0.01486
-0.01631
0.04972
-0.01484
-0.01628
0.04972
-0.01620
0.04974
-0.01621
0.04976
0.05601
0.05647
0.07745
0.07685
0.05639
0.05611
0.07713
0.07728
-0.01442
-0.01582
0.04942
-0.01429
-0.01570
0.04974
-0.01583
0.04976
-0.01568
0.04936
0.05579
0.05659
0.07754
0.07671
0.05618
0.05595
0.07702
0.07721
-0.01484
-0.01625
0.04921
-0.01626
0.04940
-0.01458
-0.01594
0.04993
-0.01604
0.04926
0.05464
0.05644
0.07761
0.07577
0.05622
0.05443
0.07518
0.07710
-0.01498
-0.01680
0.04786
-0.01421
-0.01589
0.04972
-0.01600
0.04987
-0.01537
0.04803
0.05563
0.05333
0.07457
0.07762
0.05267
0.05797
0.07743
0.07259
-0.01211
-0.01424
0.04755
-0.01307
0.04680
-0.01487
-0.01640
0.04716
-0.01631
0.05088
0.05577
0.05638
0.07710
0.07637
0.05628
0.05564
0.07684
0.07738
-0.01440
-0.01580
0.04937
-0.01580
0.04949
-0.01437
-0.01579
0.04993
-0.01574
0.04867
0.05689
0.05413
0.07462
0.07784
0.05402
0.05684
0.07798
0.07539
-0.01373
-0.01510
0.05033
-0.01372
-0.01515
0.04789
-0.01518
0.04694
-0.01513
0.05013
0.05706
0.05415
0.07451
0.07811
0.05327
0.05728
0.07748
0.07451
-0.01464
-0.01604
0.05035
-0.01601
-0.01729
0.04851
-0.01578
0.04651
-0.01849
0.04958
0.05576
0.05415
0.07520
0.07751
0.05463
0.05583
0.07511
0.07446
-0.01394
-0.01604
0.04847
-0.01443
0.04798
-0.01422
-0.01656
0.04750
-0.01470
0.04932
0.05707
0.05680
0.07749
0.07799
0.05665
0.05681
0.07768
0.07763
-0.01587
-0.01755
0.05030
-0.01698
0.04989
-0.01589
-0.01759
0.05024
-0.01699
0.05016
0.05664
0.05756
0.07843
0.07744
0.05735
0.05610
0.07701
0.07815
-0.01731
-0.01843
0.05006
-0.01882
0.05067
-0.01680
-0.01800
0.05087
-0.01827
0.04937
0.05700
0.05565
0.07627
0.07799
0.05557
0.05670
0.07764
0.07672
-0.01440
-0.01583
0.05031
-0.01577
0.04862
-0.01463
-0.01609
0.04918
-0.01597
0.05006
0.05593
0.05697
0.07799
0.07664
0.05666
0.05594
0.07703
0.07755
-0.01478
-0.01629
0.04941
-0.01457
-0.01608
0.05022
-0.01607
0.05004
-0.01587
0.04910
0.05492
0.05628
0.07721
0.07607
0.05607
0.05533
0.07625
0.07719
-0.01349
-0.01484
0.04811
-0.01378
-0.01510
0.04970
-0.01502
0.04928
-0.01530
0.04877
0.04343
0.04517
0.07333
0.07645
0.05857
0.06616
0.07440
0.07172
-0.01737
-0.01045
0.04723
-0.01504
0.05183
0.02533
-0.00840
0.01493
-0.03903
-0.00823
0.04979
0.04728
0.08098
0.07574
0.06969
0.06440
0.08027
0.08147
0.00695
-0.02125
0.02421
-0.02045
-0.01393
0.04768
-0.04122
0.01234
-0.02198
0.05605
0.05488
0.05712
0.07791
0.07606
0.05704
0.05682
0.07694
0.07722
-0.01585
-0.01703
0.04808
-0.01706
0.05075
-0.01681
-0.01900
0.04875
-0.01769
0.05145
-0.18265
-0.08556
0.27869
0.24464
0.15745
-0.12881
-0.08719
0.04725
0.01634
0.07671
0.05601
0.02704
0.05067
0.05652
0.07608
0.06974
0.05460
0.05226
0.07409
0.07668
-0.00938
-0.00902
0.04545
-0.01243
0.04679
-0.01101
-0.01122
0.05020
-0.01351
0.04527
0.05016
0.05938
0.08012
0.06940
0.05619
0.05253
0.07456
0.07768
-0.01069
-0.01060
0.04500
-0.01353
0.04895
-0.01256
-0.01355
0.05205
-0.01451
0.04540
0.05612
0.05632
0.07730
0.07699
0.05634
0.05620
0.07719
0.07724
-0.01453
-0.01592
0.04947
-0.01594
0.04970
-0.01444
-0.01583
0.04959
-0.01585
0.04944
0.05672
0.05606
0.07709
0.07770
0.05616
0.05656
0.07739
0.07701
-0.01477
-0.01613
0.05001
-0.01617
0.04958
-0.01468
-0.01606
0.04934
-0.01605
0.04996
0.05670
0.05635
0.07737
0.07770
0.05654
0.05666
0.07751
0.07733
-0.01512
-0.01641
0.04994
-0.01658
0.05002
-0.01499
-0.01634
0.04961
-0.01638
0.05001
0.05693
0.05640
0.07742
0.07741
0.05665
0.05635
0.07756
0.07736
-0.01645
-0.01791
0.05080
-0.01770
0.05021
-0.01491
-0.01638
0.04963
-0.01624
0.04947
-0.01751
-0.01946
-0.01738
-0.01841
0.08532
0.08395
-0.02066
-0.01619
0.08305
-0.01896
-0.02123
0.09091
-0.01818
-0.01976
0.08453
-0.01748
-0.01694
-0.01764
-0.01746
0.08486
0.08587
-0.01695
-0.01757
0.08558
-0.01753
-0.01703
0.08582
-0.01690
-0.01712
0.08510
-0.01853
-0.01749
-0.01878
-0.01616
0.08581
0.08373
-0.01755
-0.01702
0.08522
-0.01839
-0.01775
-0.01738
-0.01699
0.08615
0.08438
-0.01687
-0.01773
-0.01642
-0.01898
0.08350
0.08559
-0.01629
-0.01731
-0.01645
-0.01907
0.08272
0.08626
-0.01853
-0.01850
0.08633
-0.01647
-0.01926
-0.01636
-0.01704
0.08658
0.08419
-0.01892
-0.01606
0.08563
-0.01738
-0.01763
0.08636
-0.01737
-0.01627
0.08470
-0.01684
-0.01992
-0.01857
-0.01606
0.08543
0.08302
-0.01937
-0.01798
0.08632
-0.01425
-0.02031
0.08743
-0.01801
-0.01867
0.08469
-0.01838
-0.01458
-0.00020
-0.04109
0.08463
0.05946
-0.01803
-0.01435
0.08241
-0.01527
-0.01506
0.08297
0.02428
-0.09390
0.02804
0.00922
-0.06092
-0.02194
-0.00876
0.04446
0.08387
0.00715
-0.05801
-0.02370
-0.01093
0.04428
0.08924
-0.01121
-0.01458
0.07793
-0.01734
-0.01700
-0.01739
-0.01715
0.08540
0.08567
-0.01692
-0.01790
0.08587
-0.01792
-0.01695
0.08598
-0.01713
-0.01704
0.08521
-0.01704
-0.01716
-0.01688
-0.01727
0.08552
0.08553
-0.01718
-0.01708
-0.01699
-0.01749
0.08549
0.08580
-0.01721
-0.01746
0.08605
-0.01817
-0.01752
-0.01901
-0.01501
0.08574
0.08349
-0.01731
-0.01732
0.08564
-0.01567
-0.01906
0.08562
-0.01719
-0.01763
0.08545
-0.01645
-0.01801
-0.01668
-0.01778
0.08481
0.08570
-0.01837
-0.01588
0.08431
-0.01628
-0.01867
0.08609
-0.01750
-0.01737
0.08562
0.04841
0.04708
0.04824
0.04759
0.04809
0.04810
0.05102
0.04675
0.04455
0.13010
-0.06606
-0.06183
0.05274
0.04430
0.04569
0.04847
0.04812
0.04831
0.04851
0.04846
0.04820
0.04804
0.04841
0.04871
0.04908
0.04662
0.04660
0.04709
0.04853
0.04888
0.04538
0.04925
0.04891
0.04888
0.04702
0.04903
0.04816
0.04882
0.04619
0.04803
0.04957
0.04679
0.04880
0.04806
0.04826
0.04767
0.04887
0.04856
0.12434
-0.06581
-0.03966
0.05219
0.04704
0.04568
0.04399
0.04906
0.05014
0.04874
0.04809
0.04833
-0.18775
-0.06990
-0.00286
-0.00906
-0.02202
-0.04061
0.02316
-0.08677
-0.13645
-0.10288
-0.11438
-0.03956
-0.03500
-0.12990
-0.11780
-0.14314
-0.05320
-0.15866
-0.02000
0.24041
-0.07212
0.04922
0.08113
-0.08739
0.09610
-0.02797
0.04632
-0.07616
0.11811
0.21871
-0.26180
0.03390
0.14595
0.15277
0.11483
-0.09098
0.03580
-0.00767
0.24238
0.21530
-0.07601
-0.00816
-0.07422
0.10736
0.03197
-0.03877
0.12432
0.07932
-0.15164
-0.16342
0.22928
-0.15612
-0.11298
0.17878
-0.09337
0.17005
0.03024
-0.04838
-0.02341
0.06489
0.23887
-0.00182
-0.13376
-0.08146
-0.18320
-0.10190
0.02411
0.01473
0.04492
-0.17357
-0.04249
-0.12539
-0.04999
0.14053
-0.00701
-0.09696
0.01708
0.14998
0.02786
-0.01540
0.07993
0.08731
-0.08855
0.19554
0.29288
0.02510
-0.19930
-0.13346
0.12916
0.11851
-0.01146
-0.11287
0.09915
-0.01852
0.06046
-0.04136
-0.01085
0.13814
0.03306
0.04001
-0.09942
-0.02914
-0.05147
-0.10253
-0.02816
0.14629
0.14253
-0.00506
0.29606
0.18911
0.00715
0.17638
0.22823
0.02689
-0.02263
0.10902
-0.01289
0.06199
0.05611
0.03340
-0.19166
-0.05681
-0.09747
0.08956
0.06835
0.12750
-0.12080
-0.02023
-0.05114
0.04287
-0.18987
-0.07374
0.00061
-0.08682
-0.09438
-0.01528
-0.00022
-0.07979
0.08635
-0.11630
0.17044
0.26990
0.14233
-0.06158
-0.09071
0.15252
-0.13578
0.08392
0.05518
-0.09262
0.09631
-0.08258
0.04447
-0.08102
-0.02954
-0.02004
-0.01944
-0.03793
0.13868
-0.06273
0.00099
0.00850
-0.04261
0.03371
0.00264
0.14456
0.13300
0.38859
-0.05770
-0.10960
0.05297
-0.11286
-0.01133
-0.03018
0.17765
-0.03950
0.09858
-0.09998
-0.03966
-0.03960
0.00672
0.03038
0.04233
0.09865
0.13943
0.05867
-0.07758
0.05572
-0.18641
0.04551
-0.13234
-0.10299
-0.16878
0.03912
-0.14588
0.02126
0.01584
0.06364
-0.11384
-0.04866
-0.06515
0.06266
-0.18371
-0.11130
-0.16896
-0.12907
0.10000
