# vtk DataFile Version 3.0
Point representing Sub_cellular elem model
ASCII

DATASET UNSTRUCTURED_GRID
POINTS 685 float
0.00303 1.73343 0.89328 
0.00535 1.73809 -1.25245 
1.74327 1.06969 -0.16880 
1.74201 -1.07821 -0.16692 
0.00488 -1.74654 -1.25011 
-0.00058 -1.74014 0.89832 
1.05913 -0.00182 1.60423 
-1.07624 -0.00280 1.56622 
1.08290 -0.00494 -1.91180 
-1.07058 -0.00452 -1.91724 
-1.74049 1.07302 -0.18142 
-1.74027 -1.08068 -0.17931 
0.00395 2.04923 -0.17858 
1.02811 1.65175 0.46010 
0.63098 1.01565 1.49671 
-0.63501 1.02305 1.47925 
-1.02419 1.65630 0.45074 
1.03175 1.65621 -0.80760 
0.64085 1.02153 -1.83315 
-0.62845 1.02199 -1.83628 
-1.02323 1.65812 -0.81379 
2.05224 -0.00447 -0.16598 
1.65263 0.62504 0.86202 
1.66612 0.62947 -1.19588 
1.03076 -1.66457 -0.80499 
1.02538 -1.65958 0.46316 
1.65104 -0.63332 0.86293 
1.66586 -0.63872 -1.19488 
0.00238 -2.05635 -0.17495 
0.64072 -1.03119 -1.83186 
-0.62860 -1.03114 -1.83522 
-1.02345 -1.66561 -0.81137 
0.62828 -1.02019 1.49305 
-0.63384 -1.02171 1.48525 
-1.02537 -1.66305 0.45560 
0.04323 0.52684 2.26110 
-1.65904 0.62916 0.84154 
-1.65819 -0.63739 0.84507 
0.00687 -0.00496 -2.22504 
-1.65741 0.63066 -1.20542 
-1.65736 -0.63882 -1.20465 
-2.05179 -0.00418 -0.18104 
0.00341 1.96573 0.39084 
0.52615 1.76274 0.71580 
0.32594 1.43924 1.23731 
-0.32152 1.44186 1.23199 
-0.52056 1.76555 0.71066 
0.00465 1.96872 -0.74868 
0.52909 1.76786 -1.06993 
0.32966 1.44375 -1.59274 
-0.31792 1.44409 -1.59438 
-0.51907 1.76874 -1.07283 
1.44936 1.41059 0.15290 
1.45229 1.41288 -0.49458 
1.97194 0.56539 -0.16699 
1.76911 0.88661 0.35623 
1.77561 0.88961 -0.69257 
1.97124 -0.57420 -0.16595 
1.45105 -1.42128 -0.49224 
1.44738 -1.41874 0.15536 
1.76757 -0.89515 0.35783 
1.77493 -0.89847 -0.69106 
0.52838 -1.77627 -1.06733 
0.00376 -1.97633 -0.74569 
0.32938 -1.45294 -1.59089 
-0.31818 -1.45301 -1.59267 
-0.51949 -1.77667 -1.07041 
0.52272 -1.77012 0.71986 
0.00088 -1.97294 0.39528 
0.32122 -1.44458 1.24073 
-0.32493 -1.44605 1.23801 
-0.52316 -1.77222 0.71615 
0.88624 0.51867 1.62709 
1.40577 0.31619 1.29166 
1.40445 -0.32287 1.29150 
0.88405 -0.51984 1.62349 
0.55064 0.00056 1.87963 
-0.90252 0.52580 1.59010 
-0.89567 -0.52383 1.59818 
-0.57793 0.01015 1.83021 
-1.41786 0.31845 1.26293 
-1.41585 -0.32652 1.26643 
0.90159 0.51854 -1.94269 
1.42466 0.31870 -1.61794 
1.42460 -0.32832 -1.61747 
0.90155 -0.52842 -1.94202 
0.57822 -0.00502 -2.14271 
-0.88896 0.51901 -1.94710 
-0.88905 -0.52817 -1.94661 
-0.56482 -0.00478 -2.14548 
-1.41372 0.31938 -1.62543 
-1.41375 -0.32799 -1.62511 
-1.44671 1.41499 0.14115 
-1.44625 1.41572 -0.50421 
-1.77059 0.89068 0.34066 
-1.76983 0.89173 -0.70394 
-1.97071 0.56766 -0.18144 
-1.44617 -1.42312 -0.50188 
-1.44686 -1.42222 0.14459 
-1.77031 -0.89869 0.34340 
-1.76960 -0.89955 -0.70258 
-1.97049 -0.57578 -0.18025 
0.56014 1.94537 0.12854 
-0.55343 1.94756 0.12430 
0.56124 1.94731 -0.48140 
-0.55296 1.94878 -0.48494 
0.89975 1.38302 1.03206 
1.05478 1.75656 -0.17363 
1.39197 1.19510 0.73090 
-0.00093 1.05295 1.58552 
1.19865 0.88915 1.23056 
0.29025 0.55002 1.83534 
-0.89833 1.38902 1.01925 
-0.30502 0.55204 1.82655 
-1.20540 0.89606 1.20719 
-1.04859 1.75970 -0.18111 
-1.39314 1.20105 0.71527 
0.90651 1.39030 -1.37879 
1.40039 1.20112 -1.07151 
0.00643 1.04613 -1.93625 
1.21221 0.89556 -1.56588 
0.31234 0.55144 -2.12343 
-0.89581 1.39130 -1.38361 
-0.29891 0.55160 -2.12488 
-1.20117 0.89646 -1.57221 
-1.39161 1.20278 -1.07960 
1.94628 0.29944 0.39136 
1.95456 0.30067 -0.72420 
1.94571 -0.30831 0.39191 
1.95434 -0.30971 -0.72367 
1.75189 -0.00424 0.88849 
1.76757 -0.00466 -1.21946 
1.05298 -1.76441 -0.17064 
1.39981 -1.21007 -1.06963 
0.55987 -1.95495 -0.47822 
0.90610 -1.39940 -1.37681 
1.38942 -1.20313 0.73287 
0.55789 -1.95282 0.13218 
0.89615 -1.39029 1.03392 
1.19589 -0.89558 1.23050 
1.21202 -0.90505 -1.56460 
-0.55379 -1.95590 -0.48177 
-0.55502 -1.95446 0.12843 
0.00630 -1.05570 -1.93509 
0.31230 -0.56137 -2.12282 
-0.89599 -1.39967 -1.38193 
-0.29898 -0.56128 -2.12434 
-1.20126 -0.90504 -1.57125 
-1.04918 -1.76666 -0.17777 
-1.39158 -1.21070 -1.07803 
-0.00464 -1.05195 1.58606 
0.29314 -0.55137 1.81530 
-0.89939 -1.39404 1.02619 
-0.30735 -0.53865 1.81118 
-1.20304 -0.90077 1.21458 
-1.39305 -1.20793 0.72047 
-1.76030 -0.00463 0.86745 
-1.95012 0.30103 0.37396 
-1.94993 -0.30985 0.37499 
-1.75907 -0.00412 -1.22967 
-1.94943 0.30177 -0.73674 
-1.94933 -0.30983 -0.73627 
0.00324 1.86591 0.65319 
0.26389 1.76486 0.81501 
0.16405 1.60327 1.07446 
-0.15847 1.60425 1.07249 
-0.25784 1.76626 0.81245 
0.00500 1.87002 -1.01173 
0.26645 1.76985 -1.17194 
0.16706 1.60819 -1.43255 
-0.15579 1.60840 -1.43338 
-0.25601 1.77026 -1.17333 
1.61352 1.25011 -0.00823 
1.61524 1.25117 -0.33114 
1.87413 0.82857 -0.16784 
1.77323 0.98888 0.09284 
1.77637 0.99043 -0.42984 
1.87312 -0.83724 -0.16634 
1.61395 -1.25962 -0.32902 
1.61190 -1.25844 -0.00607 
1.77181 -0.99739 0.09462 
1.77541 -0.99911 -0.42812 
0.26588 -1.77828 -1.16944 
0.00435 -1.87804 -1.00906 
0.16669 -1.61704 -1.43044 
-0.15613 -1.61711 -1.43134 
-0.25648 -1.77846 -1.17095 
0.26029 -1.77190 0.81963 
0.00015 -1.87304 0.65804 
0.15986 -1.60942 1.07914 
-0.16225 -1.61014 1.07794 
-0.26105 -1.77299 0.81781 
0.98684 0.25672 1.63392 
1.24346 0.15580 1.46332 
1.24227 -0.16128 1.46311 
0.98404 -0.25921 1.63288 
0.81724 -0.00036 1.75249 
-1.00610 0.25897 1.59247 
-0.99986 -0.26210 1.59868 
-0.83803 0.00069 1.70798 
-1.25870 0.15601 1.42923 
-1.25643 -0.16393 1.43199 
1.00296 0.25601 -1.94400 
1.26373 0.15640 -1.78216 
1.26371 -0.16617 -1.78194 
1.00294 -0.26591 -1.94367 
0.84176 -0.00499 -2.04376 
-0.99041 0.25646 -1.94897 
-0.99046 -0.26558 -1.94872 
-0.82881 -0.00465 -2.04788 
-1.25200 0.15693 -1.78862 
-1.25203 -0.16576 -1.78847 
-1.61099 1.25398 -0.02054 
-1.61078 1.25431 -0.34239 
-1.77249 0.99262 0.07894 
-1.77211 0.99316 -0.44193 
-1.87216 0.83154 -0.18148 
-1.61059 -1.26182 -0.34015 
-1.61089 -1.26146 -0.01783 
-1.77227 -1.00042 0.08131 
-1.77186 -1.00089 -0.44022 
-1.87191 -0.83942 -0.17977 
0.00365 2.02777 0.11077 
0.00429 2.02931 -0.46810 
0.28872 2.02245 -0.02949 
-0.28126 2.02349 -0.03153 
0.28914 2.02333 -0.32561 
-0.28100 2.02418 -0.32749 
0.78358 1.72479 0.59642 
1.25233 1.54597 0.31068 
0.80844 1.82072 0.29433 
0.98197 1.53272 0.75652 
1.04846 1.72916 0.14791 
1.22132 1.44143 0.61045 
0.48505 1.24303 1.37780 
0.76626 0.77449 1.57998 
0.78078 1.20970 1.28044 
0.32576 1.04473 1.56375 
0.92540 0.97069 1.37905 
0.46361 0.79666 1.68009 
-0.48381 1.24826 1.36712 
-0.77790 0.78400 1.55163 
-0.32827 1.05003 1.55382 
-0.78141 1.21643 1.26510 
-0.47303 0.80369 1.66336 
-0.93147 0.97879 1.35627 
-0.77878 1.72871 0.58895 
-1.24919 1.55065 0.29988 
-0.80287 1.82411 0.28769 
-0.97919 1.53800 0.74571 
-1.04342 1.73300 0.13961 
-1.21970 1.44695 0.59802 
0.78692 1.72977 -0.94731 
1.25589 1.54946 -0.65510 
0.81055 1.82389 -0.64472 
1.05032 1.73146 -0.49524 
0.98726 1.53897 -1.10402 
1.22711 1.44695 -0.95469 
0.48926 1.24630 -1.72779 
0.77972 0.77641 -1.90552 
0.78890 1.21689 -1.62428 
0.32832 1.04075 -1.90951 
0.93740 0.97661 -1.71515 
0.47686 0.80048 -2.00040 
-0.47715 1.24672 -1.73020 
-0.76714 0.77688 -1.90932 
-0.31558 1.04098 -1.91107 
-0.77727 1.21759 -1.62828 
-0.46386 0.80076 -2.00267 
-0.92556 0.97729 -1.71987 
-0.77753 1.73115 -0.95182 
-1.24848 1.55187 -0.66301 
-0.80217 1.82570 -0.64970 
-1.04296 1.73395 -0.50205 
-0.97761 1.54038 -1.10957 
-1.21844 1.44878 -0.96189 
2.03210 0.28490 -0.16637 
2.03174 -0.29381 -0.16584 
2.02426 0.14332 0.11926 
2.02863 0.14363 -0.45159 
2.02403 -0.15224 0.11953 
2.02848 -0.15260 -0.45132 
1.72862 0.76406 0.61522 
1.54377 0.47415 1.08957 
1.53776 0.92039 0.81472 
1.44345 0.77186 1.05738 
1.82125 0.46264 0.64070 
1.72669 0.31479 0.88262 
1.73864 0.76811 -0.95064 
1.56034 0.47808 -1.42063 
1.54891 0.92608 -1.15168 
1.45759 0.77772 -1.39189 
1.83268 0.46531 -0.97408 
1.74166 0.31702 -1.21452 
1.25476 -1.55783 -0.65259 
0.78607 -1.73815 -0.94467 
1.04894 -1.73951 -0.49241 
1.22634 -1.45564 -0.95242 
0.80935 -1.83189 -0.64180 
0.98659 -1.54771 -1.10170 
1.24998 -1.55395 0.31343 
0.78046 -1.73244 0.59992 
1.04620 -1.73697 0.15099 
1.21858 -1.44938 0.61300 
0.80590 -1.82837 0.29778 
0.97876 -1.54046 0.75928 
1.72702 -0.77257 0.61654 
1.54226 -0.48185 1.08994 
1.82023 -0.47133 0.64150 
1.72585 -0.32322 0.88307 
1.53559 -0.92851 0.81613 
1.44121 -0.77940 1.05808 
1.73820 -0.77716 -0.94937 
1.56020 -0.48752 -1.41990 
1.83242 -0.47445 -0.97330 
1.74154 -0.32633 -1.21401 
1.54850 -0.93522 -1.15022 
1.45736 -0.78709 -1.39072 
0.00310 -2.03660 -0.46480 
0.00163 -2.03490 0.11477 
0.28764 -2.03067 -0.32221 
0.28680 -2.02971 -0.02579 
-0.28220 -2.03125 -0.32403 
-0.28286 -2.03047 -0.02767 
0.48907 -1.25576 -1.72622 
0.77964 -0.78621 -1.90454 
0.78867 -1.22631 -1.62265 
0.93724 -0.98620 -1.71384 
0.32820 -1.05041 -1.90828 
0.47680 -0.81031 -1.99946 
-0.47734 -1.25578 -1.72882 
-0.76727 -0.78606 -1.90856 
-0.31572 -1.05038 -1.90997 
-0.77744 -1.22637 -1.62693 
-0.46398 -0.81021 -2.00187 
-0.92570 -0.98615 -1.71885 
-0.77787 -1.73883 -0.94939 
-1.24855 -1.55926 -0.66063 
-0.80265 -1.83297 -0.64688 
-0.97778 -1.54830 -1.10754 
-1.04330 -1.74111 -0.49921 
-1.21849 -1.45650 -0.95990 
0.48044 -1.24771 1.37854 
0.76423 -0.77654 1.57523 
0.77716 -1.21593 1.28034 
0.92245 -0.97579 1.37753 
0.32142 -1.04654 1.56178 
0.46337 -0.79922 1.67037 
-0.48532 -1.24947 1.37389 
-0.77229 -0.77973 1.55968 
-0.32879 -1.04647 1.55816 
-0.78159 -1.21907 1.27255 
-0.47110 -0.79661 1.66319 
-0.92876 -0.98006 1.36466 
-0.78066 -1.73535 0.59428 
-1.24978 -1.55762 0.30409 
-0.80434 -1.83094 0.29216 
-1.04431 -1.73988 0.14361 
-0.98050 -1.54426 0.75161 
-1.22032 -1.45365 0.60321 
0.23103 -0.42648 1.98324 
0.19524 -0.38113 2.21292 
0.40739 0.29749 2.17316 
0.19594 -0.28364 2.90039 
-0.26866 -0.39678 2.03365 
-0.32546 -0.30976 2.27340 
-1.55294 0.47766 1.06544 
-1.73248 0.76830 0.59752 
-1.45029 0.77745 1.03517 
-1.54181 0.92590 0.79623 
-1.73455 0.31678 0.86132 
-1.82664 0.46535 0.62189 
[...]
CELL_DATA 2047
SCALARS Strain double 
LOOKUP_TABLE default 
-0.08959
-0.08981
-0.08657
-0.09145
-0.08673
-0.08865
-0.08675
-0.08800
-0.08761
-0.08710
-0.08974
-0.08666
-0.08916
-0.08543
-0.08761
-0.08923
-0.08724
-0.08905
-0.08578
-0.08717
-0.08694
-0.08837
-0.08793
-0.08760
-0.08717
-0.08922
-0.08835
-0.08758
-0.08895
-0.08834
-0.10331
-0.06874
-0.06753
-0.10476
-0.05806
-0.09605
-0.09609
-0.07961
-0.07705
-0.08201
-0.08760
-0.08753
-0.08745
-0.08764
-0.08738
-0.08748
-0.08738
-0.08761
-0.08761
-0.08772
-0.08835
-0.08713
-0.08910
-0.08927
-0.08683
-0.08777
-0.08778
-0.08843
-0.08811
-0.08754
-0.03672
-0.03649
0.07087
0.06880
0.06874
0.07067
-0.03942
-0.03894
0.07215
0.07149
0.07002
0.07154
-0.01996
-0.04123
0.08536
0.04198
0.06319
0.09913
-0.02548
-0.04465
0.05188
0.07424
0.09233
0.07570
-0.03446
-0.03465
0.06931
0.06564
0.06581
0.06934
-0.03275
-0.03269
0.06849
0.06848
0.06859
0.06858
-0.03434
-0.03428
0.06919
0.07005
0.07008
0.06929
-0.03406
-0.03404
0.06988
0.06898
0.06921
0.06979
-0.03344
-0.03343
0.07004
0.06717
0.06774
0.06998
-0.03695
-0.03697
0.07062
0.07100
0.07146
0.07031
-0.02630
-0.02411
0.06377
0.06799
0.06958
0.06121
-0.03422
-0.03420
0.06898
0.07007
0.07009
0.06906
-0.03322
-0.03320
0.06887
0.06883
0.06884
0.06887
-0.03761
-0.03780
0.07004
0.07050
0.07076
0.07092
-0.02710
-0.02463
0.07017
0.06119
0.06373
0.06783
-0.03394
-0.03398
0.06977
0.06906
0.06901
0.06984
-0.03546
-0.03548
0.06923
0.06990
0.06986
0.06927
-0.03439
-0.03433
0.06929
0.07007
0.07008
0.06940
-0.03396
-0.03392
0.06992
0.06890
0.06905
0.06982
-0.03365
-0.03373
0.06974
0.06842
0.06830
0.06979
-0.02221
-0.03430
0.07951
0.05958
0.04769
0.08837
-0.02447
-0.04199
0.04456
0.08105
0.09520
0.06682
-0.03578
-0.03529
0.06942
0.06862
0.06936
0.06884
-0.08281
-0.05590
0.11829
-0.13181
0.10556
-0.03579
-0.03605
0.06583
0.06992
0.06900
0.06639
-0.03455
-0.03477
0.06927
0.06669
0.06651
0.06966
-0.03393
-0.03397
0.06937
0.06949
0.06951
0.06934
-0.03479
-0.03508
0.06950
0.07017
0.07022
0.06935
-0.03462
-0.03469
0.06939
0.07007
0.07014
0.06911
-0.03346
-0.03364
0.06743
0.06901
0.06894
0.06789
-0.06807
-0.04760
0.08115
0.07751
0.03211
0.03519
-0.06902
-0.04950
0.08187
0.07748
0.03232
0.03739
-0.06309
-0.04032
0.07655
0.07846
0.02819
0.02929
-0.07041
-0.04883
0.08213
0.07647
0.03113
0.03652
-0.06459
-0.04439
0.07731
0.07609
0.03037
0.03174
-0.06721
-0.04698
0.07970
0.08075
0.03535
0.03430
-0.06455
-0.04372
0.07947
0.07885
0.03280
0.03367
-0.06598
-0.04525
0.07924
0.08062
0.03499
0.03386
-0.06561
-0.04492
0.08053
0.07892
0.03363
0.03474
-0.06504
-0.04432
0.08043
0.07845
0.03232
0.03448
-0.06881
-0.04906
0.08109
0.08006
0.03569
0.03717
-0.06437
-0.04354
0.07991
0.07811
0.03213
0.03373
-0.06783
-0.04758
0.07949
0.08165
0.03689
0.03433
-0.06185
-0.03928
0.07787
0.07832
0.03090
0.03013
-0.06569
-0.04505
0.07840
0.08102
0.03510
0.03296
-0.06791
-0.04764
0.08039
0.08098
0.03616
0.03499
-0.06500
-0.04414
0.08021
0.07848
0.03269
0.03407
-0.06787
-0.04793
0.08115
0.07930
0.03477
0.03680
-0.06242
-0.04003
0.07937
0.07738
0.02992
0.03193
-0.06526
-0.04469
0.08045
0.07858
0.03299
0.03464
-0.06483
-0.04408
0.07964
0.07906
0.03318
0.03380
-0.06668
-0.04619
0.07985
0.08034
0.03481
0.03438
-0.06597
-0.04527
0.07935
0.08057
0.03491
0.03395
-0.06557
-0.04485
0.08049
0.07901
0.03359
0.03469
-0.06514
-0.04445
0.08019
0.07879
0.03297
0.03438
-0.06786
-0.04791
0.08014
0.07870
0.03317
0.03537
-0.06671
-0.04624
0.07970
0.07863
0.03304
0.03396
-0.06493
-0.04294
0.07845
0.07792
0.03028
0.03216
-0.06675
-0.04450
0.07830
0.07887
0.03255
0.03135
-0.06660
-0.04630
0.07875
0.07863
0.03274
0.03353
-0.06808
-0.04897
0.08572
0.08787
0.04891
0.04084
-0.05196
-0.03300
0.08478
0.06677
0.02507
0.03992
-0.05006
-0.03266
0.06610
0.08210
0.03906
0.02487
-0.07269
-0.04592
0.07953
0.09855
0.05151
0.02996
-0.01938
0.38472
0.13348
0.12866
0.02558
0.02552
-0.04966
-0.03962
0.05771
0.07705
0.04378
0.02514
-0.06470
-0.04819
0.08117
0.08121
0.03587
0.03786
-0.04534
0.12144
0.12852
0.02551
0.02539
-0.06465
-0.04583
0.07300
0.07788
0.03569
0.02997
-0.06530
-0.04521
0.08006
0.07495
0.03043
0.03563
-0.06567
-0.04505
0.08013
0.07970
0.03400
0.03445
-0.06560
-0.04499
0.08011
0.07964
0.03398
0.03442
-0.06548
-0.04483
0.07964
0.08002
0.03426
0.03396
-0.06572
-0.04511
0.08010
0.07980
0.03411
0.03446
-0.06539
-0.04473
0.07970
0.07980
0.03410
0.03400
-0.06550
-0.04485
0.07974
0.07977
0.03420
0.03390
-0.06538
-0.04473
0.07954
0.07985
0.03425
0.03374
-0.06557
-0.04485
0.07985
0.07966
0.03405
0.03421
-0.06581
-0.04536
0.07967
0.08022
0.03453
0.03393
-0.06589
-0.04536
0.07973
0.08023
0.03455
0.03393
-0.06651
-0.04574
0.07677
0.08087
0.03482
0.03097
-0.06500
-0.04427
0.07717
0.08021
0.03430
0.03213
-0.06748
-0.04693
0.08085
0.07751
0.03191
0.03471
-0.06718
-0.04623
0.08045
0.07954
0.03431
0.03499
-0.06479
-0.04417
0.07765
0.07916
0.03319
0.03231
-0.06558
-0.04471
0.07875
0.08004
0.03415
0.03319
-0.06606
-0.04573
0.07885
0.07931
0.03399
0.03351
-0.06658
-0.04583
0.07891
0.07958
0.03358
0.03305
-0.06620
-0.04555
0.08022
0.07912
0.03394
0.03471
-0.06549
-0.04466
0.07953
0.07865
0.03260
0.03365
0.07369
0.07417
0.01827
0.01861
0.01538
0.01486
0.07133
0.07146
0.02132
0.01693
0.01407
0.01787
0.07112
0.07101
0.02187
0.01882
0.01545
0.01891
0.07297
0.07273
0.02071
0.01814
0.01448
0.01762
0.07632
0.08034
0.02525
0.00969
0.00945
0.01794
0.07161
0.07113
0.02233
0.01813
0.01476
0.01912
0.07226
0.06941
0.02562
0.01564
0.01097
0.02518
0.08738
0.09190
0.01500
0.01739
0.01210
0.01365
0.06740
0.06902
0.03454
0.01394
0.01424
0.02840
0.12579
0.12324
0.06439
0.02564
0.09963
0.02505
0.07019
0.06840
0.01803
0.01997
0.01509
0.01650
0.14139
0.01910
0.09810
0.02535
0.10353
0.02525
0.07122
0.06878
0.01391
0.02202
0.01716
0.01231
0.06865
0.06912
0.02096
0.02062
0.01758
0.01771
0.07222
0.07255
0.01696
0.01836
0.01567
0.01325
0.07132
0.07153
0.02001
0.02135
0.01821
0.01691
0.07122
0.07136
0.02000
0.02140
0.01823
0.01689
0.07252
0.07246
0.02028
0.02014
0.01708
0.01715
0.07260
0.07260
0.02025
0.02024
0.01700
0.01698
0.07185
0.07187
0.02074
0.02038
0.01715
0.01753
0.07117
0.07075
0.02099
0.02074
0.01758
0.01777
0.07186
0.07195
0.02060
0.02037
0.01718
0.01749
0.07221
0.07211
0.01999
0.02082
0.01762
0.01653
0.07253
0.07261
0.01895
0.02080
0.01771
0.01619
0.07323
0.07295
0.02419
0.01535
0.01169
0.02193
0.07307
0.07276
0.02063
0.01927
0.01607
0.01738
0.07419
0.07386
0.02336
0.01526
0.01166
0.02108
0.07251
0.07233
0.02115
0.01927
0.01607
0.01779
0.06268
0.06270
0.02574
0.02577
0.02251
0.02188
0.07158
0.07158
0.02075
0.02053
0.01734
0.01765
0.07157
0.07195
0.01886
0.02139
0.01822
0.01565
0.07138
0.07145
0.02027
0.02104
0.01796
0.01709
0.07145
0.07161
0.01938
0.02120
0.01812
0.01617
0.07150
0.07165
0.02010
0.02122
0.01802
0.01695
0.07169
0.06922
0.02483
0.01658
0.01182
0.02400
0.07283
0.07254
0.01944
0.01925
0.01584
0.01619
0.07482
0.07729
0.02345
0.01215
0.01049
0.01826
0.06764
0.06461
0.01478
0.03406
0.02710
0.01542
0.07245
0.07253
0.02023
0.02037
0.01713
0.01701
0.07233
0.07227
0.02074
0.01914
0.01585
0.01757
0.07179
0.07184
0.02024
0.01897
0.01579
0.01699
0.07256
0.07251
0.02039
0.02003
0.01695
0.01728
0.07197
0.07200
0.02078
0.02027
0.01703
0.01758
0.07124
0.07107
0.02092
0.02071
0.01758
0.01765
0.07168
0.07178
0.02065
0.02052
0.01732
0.01754
0.07222
0.07209
0.01992
0.02084
0.01763
0.01662
0.07076
0.07083
0.02029
0.02055
0.01753
0.01698
0.07239
0.07249
0.01959
0.02053
0.01753
0.01651
0.08567
0.08032
0.01859
0.01652
0.00739
0.01992
0.10817
-0.18462
0.04209
0.02643
0.08028
0.02551
0.07675
0.07347
0.01465
0.02092
0.01461
0.01452
0.12716
0.00784
0.04787
0.02608
0.10620
0.02560
0.07090
0.07156
0.02370
0.01609
0.01324
0.01938
0.07051
0.06968
0.02040
0.01940
0.01557
0.01816
0.07071
0.06983
0.01714
0.02066
0.01682
0.01460
0.06923
0.06954
0.02064
0.01947
0.01645
0.01710
0.07200
0.07173
0.01953
0.01856
0.01502
0.01671
0.07272
0.07270
0.02014
0.02003
0.01657
0.01687
0.07169
0.07153
0.02134
0.01902
0.01623
0.01813
0.07127
0.07085
0.02114
0.01993
0.01678
0.01806
0.07241
0.06789
-0.00830
-0.00474
0.06756
-0.00808
-0.00339
0.07080
-0.00934
-0.01069
0.06937
-0.00569
-0.00443
-0.00865
-0.00959
0.07097
0.07169
-0.00472
-0.00540
0.07030
-0.00704
-0.00615
0.07189
-0.00483
-0.00600
0.06999
-0.00632
-0.00511
-0.00725
-0.00556
0.07209
0.07050
-0.00464
-0.00294
0.06908
-0.00815
-0.00584
0.06984
0.07274
-0.00299
-0.00584
-0.00866
-0.00829
-0.00463
-0.00736
0.07072
0.07211
-0.00359
-0.00522
0.07223
0.06942
-0.00749
-0.00546
0.06993
-0.00540
-0.00327
-0.00850
-0.00767
-0.00733
-0.00520
0.07105
0.07046
-0.00669
-0.00606
0.07149
-0.00507
-0.00542
0.07178
-0.00497
-0.00593
0.07020
-0.00629
-0.00519
-0.00680
-0.00560
0.07078
0.06981
-0.00680
-0.00526
0.06946
-0.00730
-0.00626
0.06942
-0.00840
-0.00726
0.07041
-0.00600
-0.00726
-0.00690
-0.00703
0.07653
0.09568
0.00611
-0.00709
0.05273
-0.01381
0.00364
0.07629
0.00313
-0.01635
0.09679
0.01160
-0.00596
-0.03000
-0.03213
0.09258
0.05543
-0.03434
-0.01363
0.08701
0.06682
-0.01667
-0.00647
-0.01760
-0.02265
0.06227
-0.00052
-0.01130
-0.00756
-0.00358
0.07128
0.07099
-0.00580
-0.00552
0.07093
-0.00584
-0.00556
0.07123
-0.00567
-0.00587
0.07107
-0.00570
-0.00552
-0.00579
-0.00586
0.07111
0.07091
-0.00579
-0.00588
0.07093
0.07100
-0.00575
-0.00603
-0.00578
-0.00563
0.07132
-0.00552
-0.00596
-0.00546
-0.00589
0.06857
0.07217
-0.00500
-0.00820
0.07138
-0.00598
-0.00775
0.06915
-0.00734
-0.00493
0.07052
-0.00549
-0.00493
-0.00698
-0.00759
0.07012
0.07121
-0.00586
-0.00656
0.07074
-0.00589
-0.00658
0.07074
-0.00620
-0.00615
0.07023
-0.00599
-0.00539
-0.00693
-0.00626
0.05494
0.05742
0.07859
0.07581
0.05762
0.05612
0.07690
0.07835
-0.01684
-0.01833
0.04816
-0.01739
-0.01903
0.05057
-0.01802
0.05119
-0.01842
0.04952
0.05554
0.05971
0.07984
0.07675
0.05835
0.05907
0.07833
0.07836
-0.01832
-0.01943
0.04849
-0.02098
-0.02345
0.05131
-0.01944
0.05180
-0.02136
0.05468
0.03960
0.04604
0.07460
0.07554
0.07170
0.06091
0.07722
0.08851
-0.01642
-0.00839
0.04113
0.01835
-0.01234
0.01540
-0.02095
0.06174
-0.03477
0.00295
0.04119
0.04981
0.08456
0.06904
0.08000
0.04829
0.06159
0.07923
0.01593
-0.01919
0.01472
-0.01901
-0.01446
0.05015
-0.05083
0.00273
-0.01446
0.04400
0.05222
0.05569
0.07593
0.07256
0.05659
0.05256
0.07378
0.07786
-0.01460
-0.01550
0.04602
-0.01543
-0.01696
0.04864
-0.01618
0.04979
-0.01726
0.04551
0.05503
0.05565
0.07661
0.07623
0.05481
0.05559
0.07665
0.07594
-0.01303
-0.01458
0.04822
-0.01436
0.04800
-0.01344
-0.01489
0.04905
-0.01483
0.04902
0.05701
0.05604
0.07681
0.07792
0.05608
0.05671
0.07768
0.07707
-0.01485
-0.01632
0.05037
-0.01479
-0.01626
0.04945
-0.01618
0.04930
-0.01612
0.05001
0.05589
0.05675
0.07779
0.07654
0.05650
0.05592
0.07706
0.07735
-0.01465
-0.01607
0.04939
-0.01443
-0.01585
0.05001
-0.01602
0.04991
-0.01579
0.04899
0.05420
0.05673
0.07784
0.07565
0.05670
0.05438
0.07470
0.07770
-0.01401
-0.01546
0.04699
-0.01537
0.05012
-0.01401
-0.01539
0.05004
-0.01544
0.04823
0.05873
0.05680
0.07771
0.07897
0.05793
0.05749
0.07859
0.07828
-0.01873
-0.01996
0.05270
-0.01651
-0.01785
0.04997
-0.02001
0.05180
-0.01787
0.05052
0.05338
0.05033
0.07356
0.07610
0.04848
0.05869
0.07851
0.06651
-0.00489
-0.00896
0.04499
-0.00378
0.04503
-0.00771
-0.01047
0.04251
-0.00811
0.05230
0.05705
0.05554
0.07634
0.07808
0.05601
0.05670
0.07765
0.07698
-0.01483
-0.01627
0.05038
-0.01616
0.04926
-0.01463
-0.01600
0.04889
-0.01601
0.05010
0.05526
0.05590
0.07702
0.07626
0.05543
0.05584
0.07686
0.07649
-0.01369
-0.01509
0.04858
-0.01379
-0.01525
0.04924
-0.01514
0.04875
-0.01516
0.04918
0.05726
0.05859
0.07835
0.07748
0.05587
0.05810
0.07817
0.07683
-0.01708
-0.01839
0.05065
-0.01957
-0.02015
0.05356
-0.01813
0.04902
-0.02147
0.05063
0.05021
0.05407
0.07707
0.07326
0.05859
0.04863
0.06644
0.07702
-0.00845
-0.01130
0.04247
-0.00844
0.05286
-0.00576
-0.00982
0.04518
-0.00406
0.04539
0.05556
0.05672
0.07764
0.07643
0.05648
0.05601
0.07697
0.07750
-0.01433
-0.01562
0.04889
-0.01579
0.04979
-0.01462
-0.01600
0.05015
-0.01600
0.04929
0.05687
0.05636
0.07719
0.07774
0.05567
0.05642
0.07739
0.07658
-0.01589
-0.01724
0.05029
-0.01726
0.04889
-0.01605
-0.01737
0.04971
-0.01746
0.04972
0.05698
0.05614
0.07691
0.07792
0.05618
0.05674
0.07766
0.07718
-0.01487
-0.01631
0.05029
-0.01620
0.04942
-0.01488
-0.01634
0.04957
-0.01621
0.05006
0.05578
0.05675
0.07780
0.07653
0.05655
0.05579
0.07687
0.07741
-0.01452
-0.01597
0.04924
-0.01436
-0.01580
0.04998
-0.01588
0.04997
-0.01572
0.04898
0.05508
0.05658
0.07756
0.07615
0.05643
0.05526
0.07609
0.07750
-0.01422
-0.01558
0.04830
-0.01422
-0.01554
0.04996
-0.01573
0.04967
-0.01574
0.04871
0.04301
0.04641
0.07437
0.07698
0.06978
0.05031
0.07031
0.09042
-0.01389
-0.01033
0.04084
-0.01839
0.05930
0.01307
-0.01519
0.01948
-0.02134
0.01497
0.04817
0.04449
0.07579
0.07513
0.05885
0.06368
0.08507
0.07755
0.01636
-0.01333
0.02065
-0.01921
-0.01330
0.04629
-0.03160
0.00004
-0.02087
0.05435
0.05502
0.05620
0.07679
0.07616
0.05612
0.05592
0.07632
0.07660
-0.01544
-0.01676
0.04825
-0.01659
0.04971
-0.01655
-0.01908
0.04816
-0.01729
0.05026
-0.11884
-0.15357
0.20743
-0.06081
0.24536
-0.13259
0.08741
-0.01412
-0.11988
0.15749
-0.00917
-0.11460
0.05685
0.05267
0.07230
0.07607
0.05343
0.05639
0.07795
0.07455
-0.01788
-0.01992
0.05018
-0.01890
0.04697
-0.01579
-0.01674
0.04657
-0.01739
0.04917
0.05264
0.05698
0.07750
0.07328
0.05577
0.05431
0.07545
0.07713
-0.01417
-0.01517
0.04612
-0.01614
0.04861
-0.01646
-0.01843
0.04974
-0.01759
0.04802
0.05627
0.05614
0.07711
0.07722
0.05617
0.05633
0.07725
0.07707
-0.01444
-0.01580
0.04956
-0.01588
0.04951
-0.01441
-0.01577
0.04942
-0.01585
0.04965
0.05684
0.05611
0.07715
0.07781
0.05638
0.05711
0.07796
0.07707
-0.01546
-0.01657
0.05013
-0.01720
0.04984
-0.01545
-0.01655
0.04933
-0.01717
0.05045
0.05680
0.05601
0.07715
0.07779
0.05614
0.05695
0.07778
0.07671
-0.01524
-0.01654
0.05009
-0.01671
0.04971
-0.01511
-0.01642
0.04906
-0.01655
0.05036
0.05559
0.05454
0.07506
0.07661
0.05444
0.05579
0.07689
0.07582
-0.01444
-0.01559
0.04903
-0.01610
0.04736
-0.01384
-0.01515
0.04831
-0.01537
0.04912
-0.01949
-0.02011
-0.02028
-0.01633
0.08739
0.08409
-0.02288
-0.01316
0.08486
-0.01550
-0.02265
0.08992
-0.02060
-0.01626
0.07982
-0.01889
-0.01596
-0.01917
-0.01673
0.08506
0.08643
-0.01618
-0.01758
0.08489
-0.01757
-0.01733
0.08621
-0.01706
-0.01659
0.08447
-0.02015
-0.01566
-0.02138
-0.01250
0.08556
0.08461
-0.01607
-0.01746
0.08449
-0.02066
-0.01313
-0.01893
-0.01718
0.08557
0.08676
-0.02077
-0.01387
-0.01895
-0.01669
0.08658
0.08619
-0.01643
-0.01929
-0.01657
-0.01713
0.08586
0.08468
-0.02028
-0.01313
0.08403
-0.01642
-0.01832
-0.01638
-0.01754
0.08536
0.08503
-0.01843
-0.01680
0.08599
-0.01762
-0.01724
0.08622
-0.01705
-0.01669
0.08467
-0.01896
-0.01836
-0.02099
-0.01555
0.08596
0.08473
-0.01857
-0.01780
0.08494
-0.01709
-0.01797
0.08641
-0.01766
-0.01933
0.08459
-0.02429
-0.00374
0.00106
-0.05299
0.08635
0.05407
-0.00884
-0.00842
0.07412
-0.00221
-0.02386
0.08250
-0.00504
-0.05515
0.06280
0.02796
-0.07816
-0.01312
-0.02204
0.01491
0.08187
-0.00093
-0.05560
-0.02116
-0.01661
0.07067
0.08621
-0.01716
-0.02086
0.08325
-0.01732
-0.01730
-0.01727
-0.01697
0.08601
0.08544
-0.01718
-0.01702
0.08532
-0.01717
-0.01735
0.08594
-0.01735
-0.01696
0.08555
-0.01721
-0.01714
-0.01697
-0.01752
0.08552
0.08559
-0.01706
-0.01712
-0.01690
-0.01761
0.08532
0.08563
-0.01751
-0.01751
0.08614
-0.01750
-0.01653
-0.01872
-0.01985
0.08250
0.08643
-0.01673
-0.01878
0.08616
-0.01861
-0.01658
0.08309
-0.01872
-0.01632
0.08516
-0.01711
-0.01754
-0.01714
-0.01796
0.08445
0.08599
-0.01801
-0.01780
0.08431
-0.01861
-0.01751
0.08544
-0.01776
-0.01671
0.08461
0.05023
0.04677
0.04700
0.04835
0.04907
0.04522
0.05655
0.04725
0.04198
0.13151
-0.06107
-0.05399
0.04367
0.04672
0.04814
0.04791
0.04790
0.04913
0.04871
0.04823
0.04824
0.04739
0.04867
0.04882
0.05091
0.05179
0.04092
0.04900
0.04858
0.04763
0.04758
0.04745
0.04919
0.04797
0.04806
0.04897
0.04733
0.05469
0.04166
0.04842
0.04847
0.04697
0.04877
0.04836
0.04808
0.04758
0.04861
0.04877
0.11330
-0.03807
-0.05217
0.05067
0.04660
0.04568
0.04734
0.04571
0.04805
0.04916
0.04795
0.04745
-0.00592
0.10234
0.03011
-0.06912
-0.13247
0.05020
0.04709
-0.10852
-0.12047
-0.16868
0.00941
-0.05122
-0.22824
-0.06622
-0.00320
-0.07249
0.25840
0.03493
-0.01419
-0.11922
-0.21372
0.27130
-0.27517
-0.17901
0.03894
0.07716
-0.06561
-0.07348
-0.02451
-0.15373
-0.13768
0.02125
0.06650
-0.24541
0.02523
0.31571
0.10077
0.05278
0.04963
-0.01713
-0.00715
0.15821
0.05156
0.35576
0.40026
-0.18014
0.03122
0.41379
0.03124
0.07879
-0.12325
0.22412
-0.01680
-0.09880
-0.01815
0.15832
-0.12093
0.00933
0.45610
-0.04112
-0.18037
-0.08703
-0.13777
0.27102
0.08442
0.06937
-0.00233
0.12877
-0.02164
0.06136
0.01339
0.12296
-0.04735
-0.11853
0.00245
0.19134
0.18286
-0.04497
-0.04878
-0.14159
0.07187
-0.13547
0.23252
-0.01038
0.16099
-0.12816
0.02110
-0.07264
-0.03825
-0.08456
-0.07839
-0.09511
-0.08123
0.02913
-0.02458
-0.07797
-0.06335
0.18198
0.07043
0.05861
0.02654
0.03759
-0.05971
-0.08657
-0.10403
0.01251
0.06199
-0.07789
-0.01873
-0.04933
-0.11412
0.00171
-0.18327
0.05973
0.11627
0.00339
0.14478
0.12595
-0.16698
-0.08321
-0.19237
0.03433
-0.12751
-0.08577
0.03599
0.07137
-0.17911
-0.06066
-0.18160
-0.08355
-0.12935
-0.02445
-0.06485
-0.09401
0.10000
