# vtk DataFile Version 3.0
Point representing Sub_cellular elem model
ASCII

DATASET UNSTRUCTURED_GRID
POINTS 657 float
-0.00074 1.73800 1.01532 
0.00198 1.74074 -1.13503 
1.74014 1.07495 -0.05187 
1.74235 -1.07462 -0.05087 
0.00341 -1.74327 -1.13018 
-0.00181 -1.73591 1.02078 
1.06065 -0.00236 1.70943 
-1.07644 0.00683 1.69945 
1.08030 -0.00152 -1.79449 
-1.07324 -0.00279 -1.79819 
-1.74148 1.07473 -0.06127 
-1.73977 -1.07677 -0.05655 
0.00045 2.05137 -0.06006 
1.02376 1.65628 0.57908 
0.62835 1.01959 1.61665 
-0.63469 1.02811 1.60562 
-1.02630 1.65910 0.57145 
1.02807 1.65980 -0.69010 
0.63774 1.02475 -1.71601 
-0.63167 1.02415 -1.71855 
-1.02601 1.65973 -0.69552 
2.05152 0.00079 -0.05024 
1.65133 0.63135 0.97700 
1.66342 0.63381 -1.07908 
1.02973 -1.66114 -0.68681 
1.02496 -1.65715 0.58090 
1.65289 -0.63090 0.97576 
1.66417 -0.63465 -1.07797 
0.00168 -2.05238 -0.05437 
0.63855 -1.02808 -1.71347 
-0.63068 -1.02882 -1.71541 
-1.02419 -1.66210 -0.68967 
0.62303 -1.02203 1.61576 
-0.63649 -1.02016 1.61357 
-1.02474 -1.65809 0.57877 
0.26165 0.22365 2.42288 
-1.65889 0.63428 0.96510 
-1.65790 -0.63256 0.96844 
0.00404 -0.00251 -2.10695 
-1.65968 0.63213 -1.08599 
-1.65870 -0.63672 -1.08356 
-2.05151 -0.00145 -0.05906 
-0.00020 1.96870 0.51065 
0.52192 1.76698 0.83647 
0.32181 1.44426 1.36076 
-0.32424 1.44695 1.35722 
-0.52362 1.76935 0.83220 
0.00120 1.97104 -0.63085 
0.52558 1.77092 -0.95246 
0.32637 1.44678 -1.47554 
-0.32123 1.44658 -1.47697 
-0.52231 1.77086 -0.95511 
1.44548 1.41561 0.27052 
1.44861 1.41726 -0.37726 
1.96995 0.57098 -0.05072 
1.76656 0.89269 0.47272 
1.77272 0.89443 -0.57577 
1.97137 -0.56982 -0.05032 
1.45065 -1.41785 -0.37520 
1.44790 -1.41602 0.27173 
1.76884 -0.89194 0.47282 
1.77417 -0.89441 -0.57458 
0.52703 -1.77286 -0.94815 
0.00272 -1.97270 -0.62543 
0.32752 -1.44983 -1.47174 
-0.31996 -1.45018 -1.47268 
-0.52070 -1.77333 -0.94959 
0.52138 -1.76674 0.84006 
0.00021 -1.96859 0.51635 
0.31798 -1.44172 1.36505 
-0.32554 -1.44142 1.36501 
-0.52324 -1.76711 0.83937 
0.88744 0.51962 1.73560 
1.40633 0.32043 1.40247 
1.40702 -0.32169 1.40032 
0.88671 -0.52669 1.73056 
0.54929 -0.00111 1.98387 
-0.90051 0.53000 1.72148 
-0.90803 -0.51842 1.72436 
-0.56212 0.00807 1.97975 
-1.41773 0.32612 1.38935 
-1.41868 -0.31939 1.39088 
0.89871 0.52186 -1.82550 
1.42204 0.32256 -1.50098 
1.42234 -0.32454 -1.50030 
0.89914 -0.52518 -1.82426 
0.57547 -0.00208 -2.02503 
-0.89199 0.52086 -1.82879 
-0.89143 -0.52625 -1.82715 
-0.56764 -0.00275 -2.02695 
-1.41633 0.32095 -1.50626 
-1.41590 -0.32627 -1.50513 
-1.44803 1.41707 0.26133 
-1.44821 1.41714 -0.38510 
-1.77083 0.89361 0.46215 
-1.77142 0.89316 -0.58415 
-1.97099 0.56972 -0.06034 
-1.44628 -1.41939 -0.37950 
-1.44614 -1.41766 0.26756 
-1.76928 -0.89429 0.46652 
-1.76994 -0.89660 -0.58046 
-1.96994 -0.57234 -0.05768 
0.55613 1.94843 0.24745 
-0.55639 1.94965 0.24355 
0.55745 1.95012 -0.36338 
-0.55601 1.95052 -0.36669 
0.89541 1.38845 1.15224 
1.05070 1.76028 -0.05557 
1.38840 1.20110 0.84851 
-0.00061 1.05573 1.71142 
1.19647 0.89480 1.34633 
0.29129 0.54735 1.95049 
-0.89999 1.39383 1.14345 
-0.30959 0.55783 1.93520 
-1.20502 0.90186 1.33369 
-1.05093 1.76129 -0.06213 
-1.39398 1.20495 0.83787 
0.90321 1.39382 -1.26164 
1.39713 1.20522 -0.95443 
0.00322 1.04881 -1.81889 
1.20923 0.89932 -1.44889 
0.30932 0.55424 -2.00595 
-0.89897 1.39325 -1.26574 
-0.30199 0.55390 -2.00705 
-1.20415 0.89816 -1.45383 
-1.39422 1.20430 -0.96094 
1.94562 0.30540 0.50661 
1.95257 0.30560 -0.60779 
1.94658 -0.30361 0.50654 
1.95311 -0.30509 -0.60741 
1.75290 0.00061 1.00143 
1.76544 -0.00034 -1.10275 
1.05262 -1.76138 -0.05268 
1.39846 -1.20635 -0.95221 
0.55902 -1.95150 -0.35896 
0.90440 -1.39596 -1.25847 
1.39010 -1.20170 0.84787 
0.55725 -1.94940 0.25161 
0.89415 -1.38937 1.15220 
1.19674 -0.89710 1.34290 
1.21002 -0.90147 -1.44694 
-0.55446 -1.95188 -0.36036 
-0.55526 -1.94975 0.25043 
0.00409 -1.05304 -1.81600 
0.30977 -0.55864 -2.00451 
-0.89746 -1.39694 -1.26112 
-0.30150 -0.55900 -2.00547 
-1.20306 -0.90291 -1.45075 
-1.04919 -1.76223 -0.05538 
-1.39258 -1.20794 -0.95649 
-0.00771 -1.04694 1.72128 
0.28345 -0.54418 1.95329 
-0.89864 -1.38972 1.15105 
-0.32619 -0.54667 1.93919 
-1.20490 -0.89711 1.33873 
-1.39218 -1.20345 0.84393 
-1.76007 0.00098 0.99091 
-1.94962 0.30467 0.49634 
-1.94901 -0.30571 0.49792 
-1.76084 -0.00246 -1.10933 
-1.95046 0.30351 -0.61600 
-1.94990 -0.30753 -0.61469 
-0.00045 1.86967 0.77402 
0.25989 1.76919 0.93643 
0.16003 1.60826 1.19741 
-0.16199 1.60930 1.19594 
-0.26131 1.77051 0.93431 
0.00158 1.87253 -0.89414 
0.26302 1.77270 -1.05451 
0.16371 1.61107 -1.31525 
-0.15913 1.61100 -1.31599 
-0.25935 1.77265 -1.05579 
1.61001 1.25528 0.10896 
1.61175 1.25599 -0.21400 
1.87152 0.83406 -0.05122 
1.77032 0.99453 0.20963 
1.77335 0.99548 -0.31298 
1.87343 -0.83331 -0.05055 
1.61394 -1.25613 -0.21252 
1.61247 -1.25528 0.11007 
1.77265 -0.99395 0.21024 
1.77521 -0.99525 -0.31188 
0.26445 -1.77492 -1.04986 
0.00310 -1.87459 -0.88896 
0.16501 -1.61387 -1.31089 
-0.15777 -1.61404 -1.31135 
-0.25784 -1.77516 -1.05058 
0.25890 -1.76800 0.94105 
-0.00074 -1.86862 0.77961 
0.15786 -1.60570 1.20236 
-0.16337 -1.60576 1.20223 
-0.26174 -1.76820 0.94070 
0.98967 0.25611 1.73846 
1.24515 0.15759 1.57079 
1.24580 -0.16008 1.56903 
0.99086 -0.26215 1.73481 
0.81822 -0.00473 1.85573 
-1.00518 0.26630 1.72567 
-1.00991 -0.25263 1.72700 
-0.83468 0.00844 1.84823 
-1.25909 0.16462 1.55815 
-1.26064 -0.15414 1.55884 
1.00022 0.25938 -1.82676 
1.26112 0.16003 -1.66505 
1.26127 -0.16257 -1.66469 
1.00043 -0.26259 -1.82615 
0.83908 -0.00181 -1.92627 
-0.99328 0.25822 -1.83029 
-0.99299 -0.26378 -1.82947 
-0.83157 -0.00280 -1.92910 
-1.25467 0.15857 -1.66952 
-1.25447 -0.16407 -1.66899 
-1.61209 1.25585 0.09956 
-1.61224 1.25582 -0.22276 
-1.77306 0.99480 0.19966 
-1.77336 0.99466 -0.32196 
-1.87280 0.83337 -0.06086 
-1.61038 -1.25799 -0.21753 
-1.61023 -1.25719 0.10506 
-1.77142 -0.99622 0.20425 
-1.77173 -0.99743 -0.31771 
-1.87136 -0.83571 -0.05707 
0.00011 2.03016 0.22981 
0.00082 2.03147 -0.34997 
0.28496 2.02497 0.08923 
-0.28451 2.02551 0.08729 
0.28545 2.02575 -0.20734 
-0.28425 2.02607 -0.20913 
0.77921 1.72911 0.71625 
1.24816 1.55076 0.42890 
0.80420 1.82447 0.41338 
0.97755 1.53781 0.87613 
1.04422 1.73319 0.26637 
1.21714 1.44677 0.72898 
0.48118 1.24760 1.50072 
0.76639 0.77804 1.69358 
0.77687 1.21491 1.40084 
0.32368 1.04728 1.68769 
0.92307 0.97586 1.49595 
0.46367 0.79768 1.79852 
-0.48480 1.25290 1.49392 
-0.77620 0.78846 1.67969 
-0.32699 1.05306 1.68080 
-0.78229 1.22173 1.39115 
-0.47172 0.80853 1.78552 
-0.93100 0.98423 1.48361 
-0.78136 1.73200 0.71008 
-1.25086 1.55304 0.42027 
-0.80546 1.82648 0.40756 
-0.98118 1.54184 0.86797 
-1.04562 1.73500 0.25926 
-1.22120 1.45028 0.71970 
0.78332 1.73307 -0.82981 
1.25216 1.55341 -0.53765 
0.80677 1.82711 -0.52696 
1.04642 1.73507 -0.37749 
0.98379 1.54255 -0.98672 
1.22362 1.45083 -0.83742 
0.48605 1.24944 -1.61064 
0.77672 0.77969 -1.78837 
0.78572 1.22029 -1.50718 
0.32515 1.04370 -1.79227 
0.93434 0.98009 -1.59809 
0.47380 0.80349 -1.88313 
-0.48042 1.24905 -1.61268 
-0.77029 0.77887 -1.79133 
-0.31881 1.04340 -1.79355 
-0.78049 1.21966 -1.51052 
-0.46704 0.80299 -1.88491 
-0.92872 0.97920 -1.60186 
-0.78059 1.73300 -0.83387 
-1.25090 1.55333 -0.54436 
-0.80506 1.82736 -0.53149 
-1.04550 1.73545 -0.38349 
-0.98061 1.54217 -0.99153 
-1.22114 1.45035 -0.84348 
2.03077 0.29041 -0.05040 
2.03153 -0.28895 -0.05022 
2.02366 0.14893 0.23476 
2.02720 0.14878 -0.33548 
2.02411 -0.14710 0.23480 
2.02753 -0.14767 -0.33534 
1.72659 0.77043 0.73117 
1.54335 0.47982 1.20291 
1.53521 0.92675 0.93105 
1.44168 0.77800 1.17253 
1.82035 0.46887 0.75573 
1.72665 0.32062 0.99638 
1.73586 0.77269 -0.83386 
1.55769 0.48218 -1.30378 
1.54592 0.93033 -1.03476 
1.45472 0.78177 -1.27498 
1.83026 0.46996 -0.85745 
1.73926 0.32139 -1.09780 
1.25401 -1.55441 -0.53498 
0.78485 -1.73471 -0.82597 
1.04828 -1.73624 -0.37434 
1.22515 -1.45208 -0.83466 
0.80844 -1.82850 -0.52312 
0.98520 -1.54422 -0.98344 
1.25014 -1.55153 0.43029 
0.77947 -1.72962 0.71886 
1.04597 -1.73421 0.26883 
1.21857 -1.44758 0.72944 
0.80533 -1.82538 0.41648 
0.97776 -1.53858 0.87706 
1.72860 -0.76968 0.73064 
1.54441 -0.48003 1.20103 
1.82174 -0.46753 0.75528 
1.72754 -0.31961 0.99565 
1.53703 -0.92691 0.92981 
1.44294 -0.77883 1.17015 
1.73693 -0.77304 -0.83267 
1.55819 -0.48358 -1.30284 
1.83094 -0.47011 -0.85674 
1.73965 -0.32211 -1.09724 
1.54698 -0.93132 -1.03309 
1.45550 -0.78327 -1.27344 
0.00225 -2.03280 -0.34438 
0.00101 -2.03073 0.23555 
0.28685 -2.02701 -0.20230 
0.28611 -2.02597 0.09424 
-0.28288 -2.02717 -0.20298 
-0.28339 -2.02612 0.09362 
0.48705 -1.25267 -1.60746 
0.77735 -0.78304 -1.78648 
0.78671 -1.22301 -1.50426 
0.93515 -0.98285 -1.59580 
0.32599 -1.04753 -1.78954 
0.47444 -0.80739 -1.88109 
-0.47927 -1.25321 -1.60890 
-0.76950 -0.78396 -1.78891 
-0.31788 -1.04790 -1.79052 
-0.77924 -1.22390 -1.50662 
-0.46629 -0.80795 -1.88255 
-0.92766 -0.98395 -1.59869 
-0.77888 -1.73542 -0.82812 
-1.24899 -1.55564 -0.53856 
-0.80333 -1.82915 -0.52526 
-0.97891 -1.54522 -0.98625 
-1.04368 -1.73713 -0.37716 
-1.21935 -1.45336 -0.83824 
0.47540 -1.24602 1.50377 
0.76331 -0.78408 1.68935 
0.77380 -1.21639 1.40005 
0.92136 -0.97936 1.49245 
0.31407 -1.04318 1.69349 
0.45496 -0.80080 1.79865 
-0.48510 -1.24489 1.50354 
-0.78140 -0.77971 1.68508 
-0.32912 -1.04153 1.69248 
-0.78173 -1.21578 1.39895 
-0.47898 -0.79849 1.79280 
-0.93184 -0.97798 1.48980 
-0.78026 -1.73023 0.71760 
-1.24906 -1.55284 0.42713 
-0.80416 -1.82599 0.41484 
-1.04398 -1.73509 0.26634 
-0.97965 -1.53942 0.87543 
-1.21940 -1.44893 0.72662 
0.38683 -0.22278 2.17358 
0.21891 -0.26642 2.37839 
0.39859 0.20967 2.18265 
0.03315 0.12432 2.57881 
-0.19830 -0.43225 2.09935 
-0.36254 -0.24645 2.15428 
-1.55267 0.48408 1.19026 
-1.73249 0.77223 0.71997 
-1.45014 0.78316 1.16003 
-1.54204 0.93042 0.91948 
-1.73430 0.32235 0.98486 
-1.82633 0.46971 0.74465 
-1.55245 -0.48033 1.19278 
[...]
CELL_DATA 1963
SCALARS Strain double 
LOOKUP_TABLE default 
-0.08736
-0.09003
-0.08574
-0.08962
-0.08763
-0.08840
-0.08685
-0.08801
-0.08751
-0.08720
-0.08883
-0.08746
-0.08903
-0.08617
-0.08716
-0.08827
-0.08733
-0.08831
-0.08710
-0.08772
-0.08714
-0.08815
-0.08766
-0.08773
-0.08711
-0.08863
-0.08605
-0.08823
-0.08493
-0.09065
-0.10488
-0.06775
-0.06761
-0.10295
-0.05989
-0.10241
-0.10602
-0.05752
-0.07142
-0.06324
-0.08758
-0.08744
-0.08755
-0.08752
-0.08741
-0.08742
-0.08755
-0.08749
-0.08770
-0.08747
-0.08828
-0.08730
-0.08792
-0.08842
-0.08775
-0.08776
-0.08805
-0.08769
-0.08761
-0.08819
-0.03503
-0.03523
0.07031
0.06857
0.06849
0.07026
-0.03822
-0.03749
0.07043
0.07276
0.07134
0.06944
-0.02025
-0.04168
0.08491
0.04273
0.06727
0.09833
-0.02934
-0.04383
0.05489
0.07723
0.08672
0.07384
-0.03473
-0.03471
0.06887
0.06917
0.06862
0.06847
-0.03323
-0.03333
0.06853
0.06926
0.06912
0.06868
-0.03435
-0.03427
0.06937
0.07009
0.07004
0.06946
-0.03394
-0.03392
0.07006
0.06888
0.06909
0.07002
-0.03353
-0.03352
0.06980
0.06799
0.06812
0.06970
-0.03596
-0.03578
0.07041
0.06993
0.07001
0.07015
-0.02955
-0.02831
0.06475
0.06908
0.07032
0.06348
-0.03394
-0.03399
0.06910
0.06977
0.06970
0.06921
-0.03351
-0.03350
0.06875
0.06944
0.06952
0.06884
-0.03464
-0.03460
0.06948
0.06794
0.06850
0.07068
-0.03161
-0.03048
0.06971
0.06487
0.06633
0.06939
-0.03423
-0.03421
0.06980
0.06941
0.06943
0.06984
-0.03495
-0.03477
0.06991
0.06905
0.06912
0.06994
-0.03415
-0.03411
0.06921
0.06996
0.06997
0.06930
-0.03420
-0.03416
0.06990
0.06925
0.06935
0.06983
-0.03362
-0.03373
0.06922
0.06899
0.06902
0.06928
-0.03486
-0.05094
0.08620
0.08106
0.06007
0.10436
-0.02904
-0.03817
0.05599
0.07798
0.08132
0.07238
-0.03635
-0.03550
0.06922
0.07022
0.07131
0.06811
-0.18768
-0.02048
-0.08078
-0.12848
-0.25266
0.13849
-0.03465
-0.03468
0.06935
0.06776
0.06746
0.06921
-0.03422
-0.03453
0.06815
0.06808
0.06807
0.06887
-0.03388
-0.03389
0.06957
0.06940
0.06942
0.06955
-0.03476
-0.03491
0.06983
0.06975
0.06975
0.06973
-0.03415
-0.03416
0.06941
0.06947
0.06955
0.06921
-0.03469
-0.03480
0.06858
0.06959
0.06963
0.06872
-0.06580
-0.04555
0.08053
0.07771
0.03207
0.03462
-0.06885
-0.04878
0.08094
0.08038
0.03471
0.03598
-0.06240
-0.03967
0.07962
0.07683
0.02873
0.03168
-0.06864
-0.04858
0.07931
0.08096
0.03644
0.03471
-0.06546
-0.04501
0.07764
0.07981
0.03340
0.03203
-0.06668
-0.04611
0.07949
0.08059
0.03503
0.03403
-0.06475
-0.04404
0.07936
0.07920
0.03339
0.03365
-0.06601
-0.04527
0.07945
0.08063
0.03493
0.03403
-0.06550
-0.04480
0.08059
0.07891
0.03357
0.03483
-0.06515
-0.04441
0.08038
0.07862
0.03278
0.03447
-0.06756
-0.04762
0.08142
0.07875
0.03422
0.03691
-0.06523
-0.04433
0.08049
0.07849
0.03260
0.03428
-0.06742
-0.04686
0.08020
0.08056
0.03533
0.03466
-0.06327
-0.04155
0.07737
0.07960
0.03274
0.03072
-0.06526
-0.04469
0.07868
0.08025
0.03452
0.03320
-0.06670
-0.04636
0.07965
0.08040
0.03509
0.03419
-0.06518
-0.04439
0.07942
0.07936
0.03373
0.03369
-0.06648
-0.04574
0.07970
0.07935
0.03409
0.03448
-0.06464
-0.04331
0.07926
0.07853
0.03191
0.03317
-0.06575
-0.04508
0.08021
0.07937
0.03372
0.03457
-0.06508
-0.04436
0.08003
0.07914
0.03333
0.03419
-0.06638
-0.04581
0.08021
0.07993
0.03439
0.03467
-0.06569
-0.04501
0.07933
0.08042
0.03472
0.03385
-0.06576
-0.04507
0.08040
0.07939
0.03390
0.03466
-0.06507
-0.04440
0.07980
0.07922
0.03345
0.03404
-0.06627
-0.04535
0.07763
0.08289
0.03494
0.03164
-0.06508
-0.04517
0.07794
0.08002
0.03416
0.03251
-0.06687
-0.04743
0.08613
0.07505
0.03287
0.04326
-0.06212
-0.04190
0.07285
0.08370
0.03798
0.02826
-0.06888
-0.04786
0.08012
0.08227
0.03524
0.03426
-0.06159
-0.04232
0.08097
0.08241
0.04323
0.03247
-0.05609
-0.03774
0.08065
0.07085
0.02877
0.03773
-0.05760
-0.03966
0.07245
0.08072
0.03680
0.03116
-0.05597
-0.04249
0.08567
0.07582
0.03723
0.04633
-0.01088
0.34948
0.14212
0.16631
0.02658
0.02610
-0.05797
-0.03774
0.07897
0.08083
0.02896
0.03444
-0.05492
-0.02721
0.08703
0.06873
0.01301
0.03257
0.00476
0.16109
0.17479
0.02662
0.02584
-0.06246
-0.04470
0.07980
0.07660
0.03352
0.03630
-0.05804
-0.04326
0.07154
0.07814
0.03695
0.03148
-0.06565
-0.04503
0.08005
0.07986
0.03416
0.03444
-0.06549
-0.04483
0.07996
0.07976
0.03405
0.03422
-0.06563
-0.04501
0.07981
0.08004
0.03434
0.03417
-0.06556
-0.04492
0.08008
0.07971
0.03400
0.03442
-0.06539
-0.04471
0.07987
0.07974
0.03406
0.03418
-0.06541
-0.04474
0.07958
0.08005
0.03441
0.03376
-0.06560
-0.04496
0.07982
0.07988
0.03431
0.03407
-0.06546
-0.04475
0.07969
0.07988
0.03424
0.03407
-0.06590
-0.04542
0.08001
0.08001
0.03440
0.03430
-0.06555
-0.04494
0.07973
0.07993
0.03420
0.03390
-0.06638
-0.04566
0.07882
0.07967
0.03419
0.03345
-0.06515
-0.04438
0.07855
0.07962
0.03390
0.03287
-0.06598
-0.04539
0.07929
0.07883
0.03321
0.03320
-0.06655
-0.04586
0.07972
0.07998
0.03452
0.03417
-0.06593
-0.04540
0.07877
0.07986
0.03406
0.03318
-0.06559
-0.04473
0.07963
0.07935
0.03360
0.03386
-0.06633
-0.04594
0.07986
0.07892
0.03375
0.03440
-0.06579
-0.04526
0.07854
0.07962
0.03355
0.03271
-0.06564
-0.04499
0.07944
0.07949
0.03404
0.03386
-0.06636
-0.04570
0.07984
0.07935
0.03357
0.03422
0.07287
0.07295
0.01828
0.02062
0.01702
0.01502
0.07113
0.07123
0.02084
0.01937
0.01594
0.01747
0.07093
0.07094
0.02137
0.01971
0.01670
0.01819
0.07267
0.07249
0.02044
0.01898
0.01580
0.01734
0.07733
0.08076
0.02325
0.01199
0.01244
0.01604
0.07284
0.07216
0.02105
0.01859
0.01511
0.01813
0.07054
0.06881
0.02463
0.01798
0.01367
0.02311
0.07991
0.08838
0.01427
0.02389
0.02182
0.00567
0.06916
0.07057
0.02919
0.01606
0.01453
0.02478
0.12821
0.13234
0.07967
0.02589
0.09171
0.02547
0.07492
0.07270
0.01790
0.01930
0.01372
0.01689
0.10879
0.18312
0.06584
0.02610
0.08636
0.02557
0.07247
0.07239
0.02070
0.01864
0.01484
0.01721
0.07075
0.07053
0.02058
0.02029
0.01724
0.01742
0.07071
0.07042
0.01995
0.01967
0.01666
0.01694
0.07166
0.07176
0.02003
0.02120
0.01796
0.01695
0.07134
0.07148
0.02042
0.02093
0.01786
0.01720
0.07262
0.07261
0.02045
0.02007
0.01702
0.01733
0.07247
0.07238
0.02043
0.02030
0.01704
0.01721
0.07203
0.07206
0.02079
0.02035
0.01711
0.01763
0.07113
0.07086
0.02111
0.02071
0.01753
0.01791
0.07174
0.07185
0.02077
0.02056
0.01736
0.01762
0.07248
0.07242
0.01989
0.02073
0.01754
0.01650
0.07220
0.07222
0.01929
0.02097
0.01787
0.01629
0.07313
0.07315
0.02200
0.01674
0.01365
0.01910
0.07232
0.07223
0.02086
0.01962
0.01654
0.01757
0.07249
0.07237
0.02182
0.01756
0.01394
0.01908
0.07245
0.07234
0.02052
0.01994
0.01665
0.01732
0.06615
0.06664
0.02319
0.02262
0.01929
0.01953
0.07180
0.07187
0.02049
0.02064
0.01749
0.01730
0.07127
0.07146
0.02013
0.02056
0.01749
0.01707
0.07192
0.07192
0.02005
0.02095
0.01782
0.01694
0.07217
0.07232
0.01955
0.02073
0.01754
0.01636
0.07147
0.07160
0.02045
0.02103
0.01785
0.01727
0.07020
0.06971
0.02142
0.01958
0.01711
0.01908
0.07123
0.07142
0.02019
0.02046
0.01721
0.01653
0.07559
0.08008
0.01760
0.01967
0.01839
0.01192
0.07298
0.07565
0.01770
0.02378
0.01997
0.01382
0.07240
0.07244
0.02048
0.02025
0.01701
0.01729
0.07167
0.07169
0.02100
0.01975
0.01668
0.01777
0.07241
0.07223
0.01904
0.02066
0.01696
0.01608
0.07247
0.07245
0.02025
0.02030
0.01719
0.01713
0.07186
0.07191
0.02074
0.02047
0.01725
0.01756
0.07165
0.07156
0.02091
0.02035
0.01721
0.01765
0.07194
0.07201
0.02068
0.02038
0.01718
0.01754
0.07223
0.07209
0.02031
0.02047
0.01725
0.01706
0.07171
0.07208
0.01976
0.02046
0.01761
0.01633
0.07184
0.07190
0.02016
0.02055
0.01753
0.01701
0.07236
0.07152
0.03197
0.02311
0.01743
0.02829
0.14616
0.43704
0.09759
0.02664
0.06723
0.02523
0.07777
0.07550
0.01587
0.01953
0.01359
0.01600
0.09200
0.23208
0.05473
0.02549
0.07637
0.02616
0.07030
0.07055
0.01953
0.02168
0.01620
0.01731
0.07006
0.07011
0.02086
0.01964
0.01626
0.01768
0.07058
0.07088
0.02051
0.01845
0.01599
0.01641
0.07119
0.07102
0.01936
0.02017
0.01660
0.01612
0.07167
0.07194
0.01909
0.01968
0.01631
0.01602
0.07220
0.07213
0.02057
0.02004
0.01670
0.01735
0.07217
0.07214
0.02046
0.01959
0.01655
0.01722
0.07153
0.07137
0.02024
0.02053
0.01734
0.01714
0.07197
0.06848
-0.00828
-0.00543
0.07057
-0.00556
-0.00379
0.06913
-0.00947
-0.00795
0.07225
-0.00303
-0.00593
-0.00592
-0.00844
0.07086
0.07167
-0.00491
-0.00559
0.07054
-0.00660
-0.00618
0.07184
-0.00492
-0.00585
0.07008
-0.00634
-0.00512
-0.00691
-0.00550
0.07225
0.06977
-0.00577
-0.00356
0.06954
-0.00739
-0.00536
0.07086
0.07178
-0.00430
-0.00535
-0.00719
-0.00809
-0.00539
-0.00709
0.07056
0.07151
-0.00494
-0.00586
0.07104
0.07038
-0.00642
-0.00603
0.07060
-0.00560
-0.00529
-0.00708
-0.00671
-0.00639
-0.00535
0.07133
0.07050
-0.00649
-0.00574
0.07118
-0.00538
-0.00525
0.07166
-0.00518
-0.00603
0.07056
-0.00598
-0.00520
-0.00644
-0.00585
0.06862
0.07498
-0.00436
-0.00797
0.07147
-0.00609
-0.00821
0.06651
-0.00757
-0.00005
0.07306
-0.00450
-0.01064
-0.00451
-0.00442
0.06601
0.10706
0.00072
-0.02415
0.05469
-0.00860
-0.00068
0.06498
-0.00220
-0.00477
0.10457
-0.00457
-0.02084
-0.03740
-0.03751
0.10403
0.06487
-0.02307
-0.00644
0.11881
0.05431
-0.03461
-0.00112
-0.04329
-0.04913
0.05832
-0.00298
-0.00133
-0.00065
-0.00896
0.07118
0.07113
-0.00567
-0.00555
0.07104
-0.00579
-0.00571
0.07125
-0.00559
-0.00571
0.07101
-0.00581
-0.00554
-0.00580
-0.00570
0.07093
0.07119
-0.00560
-0.00601
0.07116
0.07101
-0.00566
-0.00572
-0.00563
-0.00580
0.07117
-0.00555
-0.00563
-0.00571
-0.00595
0.07012
0.07107
-0.00550
-0.00634
0.07069
-0.00629
-0.00685
0.07005
-0.00672
-0.00621
0.07109
-0.00540
-0.00587
-0.00594
-0.00672
0.07100
0.07049
-0.00635
-0.00590
0.07030
-0.00604
-0.00574
0.07091
-0.00631
-0.00679
0.07076
-0.00587
-0.00625
-0.00608
-0.00575
0.05477
0.05692
0.07796
0.07575
0.05717
0.05582
0.07664
0.07806
-0.01537
-0.01646
0.04804
-0.01587
-0.01704
0.05017
-0.01694
0.05053
-0.01736
0.04923
0.05748
0.05770
0.07839
0.07900
0.05664
0.05942
0.07907
0.07658
-0.01763
-0.01901
0.05015
-0.01879
-0.02165
0.04911
-0.01857
0.05046
-0.01925
0.05437
0.04188
0.04932
0.07721
0.07364
0.06416
0.06570
0.07520
0.07552
-0.01754
-0.00991
0.04483
0.01887
-0.00796
0.02161
-0.01802
0.05796
-0.04033
0.00241
0.04868
0.05006
0.08123
0.07538
0.07228
0.05376
0.06243
0.07755
0.00542
-0.02128
0.02235
-0.02033
-0.01593
0.05029
-0.03576
0.01681
-0.01665
0.04962
0.05527
0.05522
0.07584
0.07646
0.05598
0.05564
0.07625
0.07674
-0.01491
-0.01597
0.04836
-0.01525
-0.01718
0.04753
-0.01641
0.04943
-0.01679
0.04929
0.05574
0.05567
0.07654
0.07669
0.05502
0.05615
0.07740
0.07617
-0.01373
-0.01508
0.04924
-0.01528
0.04813
-0.01386
-0.01519
0.04911
-0.01538
0.04941
0.05698
0.05621
0.07700
0.07796
0.05624
0.05673
0.07762
0.07724
-0.01483
-0.01631
0.05024
-0.01481
-0.01630
0.04962
-0.01615
0.04950
-0.01613
0.05009
0.05580
0.05693
0.07792
0.07648
0.05671
0.05580
0.07691
0.07761
-0.01449
-0.01592
0.04930
-0.01438
-0.01580
0.05022
-0.01586
0.05008
-0.01576
0.04891
0.05481
0.05660
0.07771
0.07591
0.05635
0.05493
0.07579
0.07726
-0.01421
-0.01566
0.04808
-0.01559
0.04980
-0.01397
-0.01536
0.04988
-0.01540
0.04844
0.05714
0.05690
0.07798
0.07785
0.05727
0.05653
0.07741
0.07788
-0.01717
-0.01872
0.05061
-0.01575
-0.01726
0.05006
-0.01828
0.05094
-0.01698
0.04981
0.05521
0.05162
0.07361
0.07735
0.05079
0.05825
0.07768
0.06983
-0.00849
-0.01130
0.04739
-0.00877
0.04555
-0.01138
-0.01330
0.04480
-0.01251
0.05147
0.05662
0.05573
0.07652
0.07752
0.05610
0.05642
0.07744
0.07711
-0.01457
-0.01593
0.05005
-0.01597
0.04933
-0.01441
-0.01573
0.04916
-0.01585
0.04973
0.05613
0.05571
0.07661
0.07701
0.05548
0.05632
0.07738
0.07654
-0.01413
-0.01557
0.04957
-0.01400
-0.01542
0.04914
-0.01552
0.04876
-0.01539
0.04961
0.05579
0.05666
0.07703
0.07646
0.05655
0.05430
0.07558
0.07912
-0.01499
-0.01649
0.04937
-0.01476
-0.01675
0.05095
-0.01626
0.04913
-0.01648
0.04649
0.05292
0.05561
0.07689
0.07498
0.05749
0.05266
0.07128
0.07785
-0.01215
-0.01416
0.04553
-0.01291
0.05071
-0.01207
-0.01429
0.04939
-0.01273
0.04667
0.05607
0.05669
0.07759
0.07701
0.05654
0.05630
0.07722
0.07752
-0.01466
-0.01605
0.04934
-0.01604
0.04988
-0.01482
-0.01626
0.05008
-0.01616
0.04962
0.05628
0.05681
0.07768
0.07719
0.05656
0.05539
0.07614
0.07754
-0.01546
-0.01693
0.04957
-0.01655
0.04983
-0.01526
-0.01679
0.05013
-0.01632
0.04885
0.05683
0.05604
0.07685
0.07778
0.05608
0.05666
0.07760
0.07708
-0.01461
-0.01603
0.05014
-0.01598
0.04933
-0.01465
-0.01609
0.04945
-0.01601
0.05000
0.05609
0.05673
0.07774
0.07690
0.05657
0.05614
0.07716
0.07743
-0.01471
-0.01615
0.04951
-0.01466
-0.01609
0.04998
-0.01607
0.04996
-0.01602
0.04938
0.05568
0.05615
0.07710
0.07665
0.05588
0.05589
0.07690
0.07690
-0.01416
-0.01547
0.04910
-0.01422
-0.01553
0.04951
-0.01574
0.04909
-0.01575
0.04924
0.05345
0.06637
0.08514
0.07485
0.05973
0.08758
0.08514
0.07318
-0.02357
-0.01889
0.05374
-0.01865
0.05343
-0.00587
-0.01707
0.05637
-0.05127
0.02294
0.05712
0.04873
0.07051
0.08182
0.06767
0.05032
0.05496
0.07110
0.00481
-0.00902
0.03488
-0.01887
-0.01571
0.04947
-0.02237
0.02582
-0.01183
0.04960
0.05725
0.05552
0.07726
0.07950
0.05580
0.05705
0.07752
0.07612
-0.01611
-0.01794
0.04979
-0.01704
0.04973
-0.01617
-0.01915
0.04706
-0.01711
0.05089
0.01158
0.10077
0.08425
-0.22737
-0.05040
0.33683
-0.06243
-0.20699
-0.11207
-0.08471
-0.19202
-0.22067
0.05449
0.05690
0.07761
0.07480
0.05564
0.05478
0.07606
0.07647
-0.01514
-0.01650
0.04748
-0.01651
0.04926
-0.01577
-0.01791
0.04913
-0.01663
0.04822
0.05619
0.05493
0.07392
0.07633
0.05556
0.05468
0.07562
0.07693
-0.01497
-0.01657
0.04831
-0.01613
0.04879
-0.01551
-0.01657
0.04865
-0.01675
0.04822
0.05621
0.05634
0.07729
0.07715
0.05637
0.05621
0.07713
0.07729
-0.01435
-0.01574
0.04949
-0.01576
0.04970
-0.01438
-0.01577
0.04963
-0.01580
0.04953
0.05658
0.05650
0.07750
0.07748
0.05667
0.05647
0.07736
0.07746
-0.01541
-0.01662
0.04990
-0.01697
0.05010
-0.01530
-0.01653
0.04977
-0.01683
0.04976
0.05634
0.05602
0.07714
0.07735
0.05620
0.05621
0.07706
0.07692
-0.01475
-0.01610
0.04961
-0.01617
0.04972
-0.01459
-0.01597
0.04918
-0.01599
0.04962
0.05631
0.05540
0.07623
0.07733
0.05552
0.05642
0.07734
0.07661
-0.01557
-0.01683
0.04945
-0.01706
0.04869
-0.01495
-0.01624
0.04886
-0.01643
0.04974
-0.01729
-0.01997
-0.01788
-0.01694
0.08646
0.08409
-0.02194
-0.01407
0.08729
-0.01254
-0.02095
0.08650
-0.02005
-0.01723
0.08483
-0.01817
-0.01630
-0.01851
-0.01694
0.08489
0.08626
-0.01636
-0.01759
0.08517
-0.01762
-0.01718
0.08630
-0.01700
-0.01658
0.08452
-0.01928
-0.01675
-0.01953
-0.01387
0.08641
0.08344
-0.01673
-0.01703
0.08468
-0.01988
-0.01512
-0.01852
-0.01683
0.08623
0.08598
-0.01908
-0.01593
-0.01800
-0.01726
0.08555
0.08601
-0.01686
-0.01783
-0.01670
-0.01749
0.08506
0.08534
-0.01823
-0.01621
0.08424
-0.01675
-0.01807
-0.01661
-0.01723
0.08588
0.08503
-0.01799
-0.01665
0.08548
-0.01735
-0.01740
0.08612
-0.01732
-0.01668
0.08510
-0.01747
-0.01708
-0.01778
-0.02010
0.08422
0.09015
-0.01690
-0.01945
0.08585
-0.01662
-0.01017
0.07900
-0.01628
-0.02137
0.08944
-0.02068
-0.00956
0.02387
-0.08100
0.08543
0.02000
-0.01384
-0.01358
0.07903
-0.01375
-0.01801
0.08856
0.02665
-0.08014
0.03406
0.02921
-0.08880
-0.01677
-0.01765
0.02341
0.08677
0.03495
-0.10191
-0.01068
-0.01726
0.02392
0.08150
-0.01999
-0.01618
0.08460
-0.01728
-0.01715
-0.01728
-0.01695
0.08587
0.08562
-0.01706
-0.01721
0.08551
-0.01731
-0.01716
0.08590
-0.01717
-0.01697
0.08546
-0.01706
-0.01699
-0.01696
-0.01763
0.08538
0.08590
-0.01724
-0.01704
-0.01718
-0.01724
0.08557
0.08564
-0.01756
-0.01712
0.08576
-0.01771
-0.01683
-0.01810
-0.01771
0.08427
0.08476
-0.01669
-0.01828
0.08563
-0.01753
-0.01788
0.08459
-0.01812
-0.01736
0.08572
-0.01718
-0.01797
-0.01712
-0.01737
0.08548
0.08531
-0.01803
-0.01720
0.08403
-0.01770
-0.01830
0.08553
-0.01718
-0.01768
0.08509
0.04927
0.04676
0.04834
0.04807
0.04874
0.04689
0.05501
0.04612
0.04483
0.11510
-0.04256
-0.04444
0.04837
0.04820
0.04622
0.04818
0.04796
0.04890
0.04884
0.04841
0.04815
0.04741
0.04891
0.04862
0.04999
0.04941
0.04380
0.04850
0.04868
0.04799
0.04757
0.04845
0.04823
0.04835
0.04798
0.04886
0.04548
0.05100
0.04955
0.04770
0.04876
0.04807
0.04873
0.04824
0.04832
0.04804
0.04860
0.04830
0.08356
0.01424
-0.01631
0.04977
0.04746
0.04604
0.04706
0.04741
0.04784
0.04844
0.04848
0.04775
-0.16716
-0.14152
-0.00554
-0.09510
0.03433
0.16114
-0.15673
-0.07337
0.11337
0.01035
-0.10327
-0.11193
-0.09622
-0.12596
0.02301
-0.12993
-0.00866
-0.02406
-0.08541
-0.02416
-0.08182
0.08093
-0.11667
-0.04530
-0.10113
-0.16143
-0.17509
-0.10883
-0.21871
0.05097
-0.03038
-0.22366
-0.07262
-0.03875
0.19692
0.22019
-0.11833
-0.15637
-0.04661
0.11551
-0.12141
-0.17264
0.26636
-0.04153
0.27315
-0.21197
-0.12647
0.02208
0.19858
0.10000
