# vtk DataFile Version 3.0
Point representing Sub_cellular elem model
ASCII

DATASET UNSTRUCTURED_GRID
POINTS 646 float
0.00101 1.74355 1.06563 
0.00041 1.74127 -1.08587 
1.74199 1.07584 -0.00926 
1.74219 -1.07673 -0.00950 
0.00036 -1.74210 -1.08582 
-0.00022 -1.74245 1.06630 
1.07218 -0.00046 1.73834 
-1.07146 0.00187 1.73917 
1.07680 -0.00040 -1.75105 
-1.07604 -0.00042 -1.75106 
-1.74145 1.07598 -0.00984 
-1.74123 -1.07686 -0.00944 
0.00055 2.05259 -0.00990 
1.02735 1.66020 0.62460 
0.63472 1.02613 1.65133 
-0.64091 1.03554 1.64629 
-1.02693 1.66176 0.62351 
1.02690 1.66037 -0.64382 
0.63476 1.02602 -1.67017 
-0.63398 1.02601 -1.67020 
-1.02603 1.66038 -0.64405 
2.05309 -0.00032 -0.00928 
1.66028 0.63316 1.01790 
1.66120 0.63397 -1.03578 
1.02684 -1.66125 -0.64389 
1.02721 -1.66196 0.62398 
1.66191 -0.63421 1.01696 
1.66118 -0.63474 -1.03581 
0.00028 -2.05346 -0.00962 
0.63474 -1.02682 -1.67018 
-0.63400 -1.02684 -1.67017 
-1.02609 -1.66125 -0.64378 
0.63708 -1.03165 1.64819 
-0.63384 -1.02398 1.65209 
-1.02601 -1.66094 0.62497 
0.02399 -0.03828 2.07553 
-1.66291 0.63382 1.01648 
-1.66040 -0.63493 1.01731 
0.00038 -0.00041 -2.06224 
-1.66041 0.63393 -1.03592 
-1.66043 -0.63482 -1.03586 
-2.05248 -0.00057 -0.00966 
0.00073 1.97209 0.56109 
0.52493 1.77215 0.88455 
0.32587 1.45070 1.40710 
-0.32419 1.45332 1.40630 
-0.52357 1.77366 0.88399 
0.00045 1.97133 -0.58103 
0.52399 1.77133 -0.90448 
0.32397 1.44774 -1.42797 
-0.32318 1.44774 -1.42799 
-0.52315 1.77133 -0.90456 
1.44862 1.41784 0.31421 
1.44861 1.41809 -0.33296 
1.97194 0.57096 -0.00923 
1.77179 0.89416 0.51446 
1.77213 0.89458 -0.53287 
1.97208 -0.57168 -0.00938 
1.44865 -1.41898 -0.33314 
1.44893 -1.41913 0.31370 
1.77244 -0.89517 0.51397 
1.77214 -0.89535 -0.53297 
0.52393 -1.77217 -0.90447 
0.00034 -1.97222 -0.58092 
0.32394 -1.44855 -1.42796 
-0.32321 -1.44856 -1.42795 
-0.52322 -1.77218 -0.90443 
0.52378 -1.77312 0.88460 
0.00011 -1.97240 0.56161 
0.32358 -1.45040 1.40745 
-0.32399 -1.44812 1.40848 
-0.52350 -1.77191 0.88532 
0.89459 0.52278 1.76422 
1.41722 0.32226 1.44118 
1.42005 -0.32272 1.43982 
0.90358 -0.52826 1.75970 
0.56242 0.00171 1.97202 
-0.90424 0.52773 1.76061 
-0.89662 -0.51995 1.76374 
-0.54520 0.01006 1.97839 
-1.42170 0.32215 1.43960 
-1.41874 -0.32323 1.44023 
0.89540 0.52315 -1.78110 
1.41896 0.32318 -1.45752 
1.41895 -0.32397 -1.45753 
0.89539 -0.52396 -1.78111 
0.57181 -0.00041 -1.98109 
-0.89463 0.52314 -1.78113 
-0.89464 -0.52397 -1.78112 
-0.57106 -0.00041 -1.98110 
-1.41819 0.32315 -1.45758 
-1.41820 -0.32400 -1.45757 
-1.44833 1.41852 0.31330 
-1.44782 1.41814 -0.33338 
-1.77222 0.89465 0.51347 
-1.77133 0.89453 -0.53318 
-1.97142 0.57090 -0.00978 
-1.44778 -1.41901 -0.33300 
-1.44767 -1.41891 0.31416 
-1.77121 -0.89549 0.51415 
-1.77135 -0.89548 -0.53301 
-1.97128 -0.57196 -0.00952 
0.55723 1.95108 0.29562 
-0.55611 1.95156 0.29524 
0.55701 1.95095 -0.31520 
-0.55606 1.95103 -0.31539 
0.90202 1.39421 1.19616 
1.05149 1.76200 -0.00958 
1.39533 1.20475 0.89120 
0.00044 1.05978 1.74833 
1.20604 0.89872 1.38621 
0.29954 0.55609 1.94431 
-0.90335 1.39850 1.19398 
-0.31498 0.57582 1.93628 
-1.21178 0.90247 1.38350 
-1.05065 1.76233 -0.01012 
-1.39690 1.20687 0.88961 
0.90085 1.39445 -1.21540 
1.39529 1.20560 -0.90981 
0.00039 1.05050 -1.77189 
1.20640 0.90003 -1.40422 
0.30595 0.55609 -1.96073 
-0.90004 1.39443 -1.21549 
-0.30519 0.55609 -1.96074 
-1.20562 0.90001 -1.40430 
-1.39447 1.20556 -0.90999 
1.95126 0.30512 0.54742 
1.95172 0.30519 -0.56581 
1.95158 -0.30564 0.54722 
1.95172 -0.30591 -0.56585 
1.76238 -0.00003 1.04218 
1.76289 -0.00038 -1.06028 
1.05144 -1.76316 -0.00980 
1.39525 -1.20639 -0.90987 
0.55687 -1.95194 -0.31518 
0.90081 -1.39525 -1.21542 
1.39644 -1.20693 0.88995 
0.55684 -1.95221 0.29566 
0.90198 -1.39741 1.19455 
1.20969 -0.90258 1.38346 
1.20638 -0.90082 -1.40424 
-0.55619 -1.95184 -0.31504 
-0.55626 -1.95177 0.29602 
0.00037 -1.05132 -1.77188 
0.30594 -0.55690 -1.96074 
-0.90008 -1.39528 -1.21540 
-0.30519 -0.55691 -1.96073 
-1.20564 -0.90086 -1.40425 
-1.05057 -1.76290 -0.00943 
-1.39450 -1.20645 -0.90985 
-0.00012 -1.05254 1.75121 
0.31699 -0.55711 1.94069 
-0.89989 -1.39437 1.19673 
-0.29722 -0.54511 1.94813 
-1.20557 -0.89997 1.38577 
-1.39419 -1.20619 0.89111 
-1.76340 -0.00105 1.04149 
-1.95158 0.30487 0.54664 
-1.95113 -0.30630 0.54691 
-1.76212 -0.00044 -1.06038 
-1.95094 0.30509 -0.56607 
-1.95095 -0.30605 -0.56601 
0.00087 1.87426 0.82453 
0.26230 1.77469 0.98571 
0.16289 1.61460 1.24628 
-0.16071 1.61544 1.24613 
-0.26049 1.77556 0.98552 
0.00043 1.87284 -0.84461 
0.26142 1.77313 -1.00587 
0.16171 1.61181 -1.26684 
-0.16091 1.61181 -1.26685 
-0.26059 1.77313 -1.00590 
1.61258 1.25676 0.15202 
1.61263 1.25689 -0.17063 
1.87349 0.83456 -0.00924 
1.77375 0.99572 0.25179 
1.77390 0.99593 -0.27029 
1.87367 -0.83536 -0.00945 
1.61274 -1.25778 -0.17085 
1.61286 -1.25780 0.15167 
1.77412 -0.99667 0.25146 
1.77398 -0.99673 -0.27045 
0.26136 -1.77396 -1.00584 
0.00035 -1.87368 -0.84454 
0.16167 -1.61263 -1.26681 
-0.16095 -1.61263 -1.26680 
-0.26065 -1.77396 -1.00582 
0.26093 -1.77468 0.98616 
-0.00005 -1.87395 0.82513 
0.16104 -1.61347 1.24696 
-0.16168 -1.61274 1.24724 
-0.26113 -1.77395 0.98648 
0.99617 0.25923 1.76747 
1.25570 0.15977 1.60645 
1.25842 -0.15967 1.60519 
1.00302 -0.26161 1.76444 
0.82958 -0.00163 1.87108 
-1.00122 0.26199 1.76602 
-0.99815 -0.25642 1.76691 
-0.82384 0.00541 1.87409 
-1.25912 0.15975 1.60546 
-1.25739 -0.15931 1.60578 
0.99679 0.26060 -1.78290 
1.25780 0.16091 -1.62159 
1.25780 -0.16171 -1.62160 
0.99679 -0.26141 -1.78291 
0.83548 -0.00040 -1.88260 
-0.99603 0.26059 -1.78293 
-0.99603 -0.26142 -1.78292 
-0.83472 -0.00041 -1.88261 
-1.25704 0.16089 -1.62163 
-1.25704 -0.16173 -1.62162 
-1.61217 1.25710 0.15129 
-1.61194 1.25697 -0.17115 
-1.77355 0.99601 0.25104 
-1.77318 0.99593 -0.27073 
-1.87297 0.83461 -0.00982 
-1.61181 -1.25785 -0.17074 
-1.61175 -1.25782 0.15188 
-1.77304 -0.99686 0.25157 
-1.77312 -0.99687 -0.27045 
-1.87278 -0.83558 -0.00947 
0.00062 2.03236 0.28011 
0.00049 2.03206 -0.29995 
0.28540 2.02686 0.13848 
-0.28426 2.02703 0.13832 
0.28531 2.02676 -0.15816 
-0.28429 2.02683 -0.15827 
0.78262 1.73373 0.76305 
1.25165 1.55383 0.47340 
0.80635 1.82784 0.46031 
0.98275 1.54281 0.92117 
1.04632 1.73594 0.31215 
1.22244 1.45081 0.77304 
0.48531 1.25285 1.54335 
0.77322 0.78200 1.72449 
0.78406 1.22105 1.44198 
0.32385 1.04987 1.72436 
0.93162 0.98069 1.53402 
0.46837 0.80529 1.81947 
-0.48625 1.25875 1.54075 
-0.78358 0.79098 1.71905 
-0.32612 1.05755 1.72078 
-0.78733 1.22745 1.43866 
-0.47853 0.81931 1.81239 
-0.93840 0.98723 1.53008 
-0.78179 1.73548 0.76212 
-1.25140 1.55496 0.47235 
-0.80542 1.82880 0.45961 
-0.98295 1.54553 0.91965 
-1.04560 1.73673 0.31136 
-1.22293 1.45286 0.77161 
0.78186 1.73353 -0.78263 
1.25147 1.55412 -0.49236 
0.80598 1.82780 -0.47976 
1.04613 1.73604 -0.33133 
0.98193 1.54303 -0.94043 
1.22207 1.45130 -0.79200 
0.48333 1.25059 -1.56395 
0.77355 0.78100 -1.74331 
0.78299 1.22121 -1.46110 
0.32221 1.04521 -1.74587 
0.93140 0.98108 -1.55281 
0.47061 0.80508 -1.83759 
-0.48254 1.25058 -1.56398 
-0.77278 0.78099 -1.74334 
-0.32143 1.04520 -1.74589 
-0.78221 1.22120 -1.46116 
-0.46985 0.80507 -1.83761 
-0.93062 0.98107 -1.55287 
-0.78100 1.73353 -0.78277 
-1.25063 1.55414 -0.49268 
-0.80508 1.82785 -0.47998 
-1.04525 1.73614 -0.33168 
-0.98110 1.54302 -0.94057 
-1.22123 1.45128 -0.79221 
2.03262 0.28983 -0.00924 
2.03270 -0.29049 -0.00933 
2.02721 0.14806 0.27557 
2.02742 0.14805 -0.29407 
2.02730 -0.14863 0.27551 
2.02743 -0.14874 -0.29410 
1.73375 0.77212 0.77250 
1.55364 0.48164 1.24310 
1.54339 0.92960 0.97263 
1.45133 0.78094 1.21319 
1.82790 0.46952 0.79663 
1.73598 0.32123 1.03707 
1.73434 0.77276 -0.79074 
1.55497 0.48254 -1.26036 
1.54386 0.93060 -0.99085 
1.45213 0.78220 -1.23098 
1.82861 0.46984 -0.81483 
1.73689 0.32143 -1.05497 
1.25145 -1.55501 -0.49249 
0.78179 -1.73439 -0.78265 
1.04608 -1.73702 -0.33146 
1.22203 -1.45212 -0.79207 
0.80590 -1.82874 -0.47981 
0.98188 -1.54385 -0.94046 
1.25185 -1.55542 0.47277 
0.78196 -1.73533 0.76267 
1.04624 -1.73734 0.31178 
1.22284 -1.45293 0.77200 
0.80599 -1.82924 0.46009 
0.98257 -1.54514 0.92014 
1.73482 -0.77318 0.77181 
1.55593 -0.48252 1.24191 
1.82871 -0.47013 0.79617 
1.73697 -0.32157 1.03658 
1.54504 -0.93139 0.97143 
1.45403 -0.78306 1.21148 
1.73433 -0.77352 -0.79079 
1.55495 -0.48332 -1.26037 
1.82860 -0.47059 -0.81486 
1.73688 -0.32220 -1.05498 
1.54383 -0.93138 -0.99089 
1.45210 -0.78298 -1.23101 
0.00031 -2.03296 -0.29977 
0.00021 -2.03305 0.28052 
0.28510 -2.02773 -0.15803 
0.28506 -2.02783 0.13867 
-0.28449 -2.02764 -0.15794 
-0.28454 -2.02765 0.13882 
0.48330 -1.25139 -1.56395 
0.77354 -0.78180 -1.74332 
0.78297 -1.22201 -1.46111 
0.93138 -0.98188 -1.55283 
0.32219 -1.04602 -1.74587 
0.47060 -0.80589 -1.83760 
-0.48257 -1.25140 -1.56394 
-0.77279 -0.78182 -1.74331 
-0.32145 -1.04602 -1.74587 
-0.78223 -1.22204 -1.46110 
-0.46986 -0.80590 -1.83759 
-0.93064 -0.98191 -1.55282 
-0.78107 -1.73439 -0.78258 
-1.25065 -1.55502 -0.49235 
-0.80517 -1.82868 -0.47966 
-0.98115 -1.54388 -0.94041 
-1.04528 -1.73694 -0.33124 
-1.22128 -1.45217 -0.79201 
0.48418 -1.25500 1.54234 
0.78027 -0.78969 1.71951 
0.78474 -1.22540 1.43962 
0.93548 -0.98648 1.53032 
0.32381 -1.05092 1.72355 
0.47385 -0.81145 1.81572 
-0.48334 -1.25021 1.54469 
-0.77466 -0.78067 1.72396 
-0.32297 -1.04512 1.72621 
-0.78208 -1.22043 1.44258 
-0.46865 -0.80053 1.82096 
-0.93099 -0.98075 1.53384 
-0.78114 -1.73403 0.76367 
-1.25052 -1.55483 0.47353 
-0.80520 -1.82849 0.46075 
-1.04524 -1.73680 0.31240 
-0.98101 -1.54335 0.92166 
-1.22105 -1.45185 0.77321 
0.29891 0.01554 2.04103 
-0.26985 -0.10032 2.04305 
0.18170 0.32219 2.02335 
-0.16776 0.39810 2.01278 
0.23899 -0.29029 2.02417 
-0.19409 -0.31391 2.02156 
-1.55751 0.48200 1.24151 
-1.73514 0.77279 0.77130 
-1.45553 0.78280 1.21126 
-1.54581 0.93121 0.97105 
-1.73808 0.32089 1.03596 
-1.82919 0.46953 0.79557 
-1.55444 -0.48331 1.24229 
[...]
CELL_DATA 1930
SCALARS Strain double 
LOOKUP_TABLE default 
-0.08948
-0.08695
-0.08792
-0.08988
-0.08578
-0.08765
-0.08748
-0.08757
-0.08752
-0.08755
-0.08779
-0.08743
-0.08769
-0.08726
-0.08750
-0.08746
-0.08732
-0.08780
-0.08756
-0.08771
-0.08751
-0.08754
-0.08750
-0.08753
-0.08749
-0.08677
-0.08804
-0.08909
-0.08691
-0.08811
-0.09645
-0.08023
-0.07419
-0.09889
-0.08185
-0.10104
-0.10384
-0.06369
-0.07264
-0.07072
-0.08751
-0.08749
-0.08751
-0.08751
-0.08750
-0.08750
-0.08751
-0.08751
-0.08753
-0.08751
-0.08784
-0.08743
-0.08784
-0.08788
-0.08741
-0.08759
-0.08752
-0.08752
-0.08749
-0.08761
-0.03481
-0.03460
0.06975
0.06933
0.06935
0.06971
-0.03509
-0.03496
0.07036
0.06925
0.06926
0.07036
-0.02985
-0.03700
0.07132
0.06313
0.07055
0.07434
-0.03273
-0.02943
0.07648
0.05708
0.05365
0.07243
-0.03351
-0.03410
0.06983
0.06629
0.06761
0.07062
-0.03397
-0.03395
0.06940
0.06940
0.06947
0.06945
-0.03407
-0.03406
0.06958
0.06959
0.06959
0.06959
-0.03405
-0.03405
0.06957
0.06951
0.06954
0.06956
-0.03412
-0.03410
0.06956
0.06904
0.06923
0.06953
-0.03429
-0.03424
0.06979
0.06954
0.06947
0.06970
-0.03247
-0.03180
0.06858
0.06883
0.06982
0.06759
-0.03402
-0.03402
0.06954
0.06960
0.06959
0.06955
-0.03398
-0.03403
0.06929
0.06959
0.06963
0.06942
-0.03387
-0.03339
0.06818
0.07004
0.06956
0.06735
-0.03360
-0.03295
0.06807
0.06945
0.07094
0.06659
-0.03410
-0.03408
0.06962
0.06956
0.06956
0.06961
-0.03428
-0.03437
0.06974
0.06940
0.06943
0.06974
-0.03405
-0.03405
0.06955
0.06959
0.06958
0.06956
-0.03406
-0.03406
0.06958
0.06959
0.06958
0.06957
-0.03405
-0.03408
0.06953
0.06956
0.06955
0.06956
-0.03507
-0.03699
0.06471
0.07569
0.07167
0.06655
-0.02998
-0.03664
0.06338
0.07302
0.07962
0.07144
-0.03468
-0.03432
0.06965
0.06979
0.07005
0.06934
-0.06292
0.00291
0.21942
-0.16541
0.11294
0.18058
-0.03319
-0.03408
0.06626
0.07180
0.07047
0.06780
-0.03300
-0.03362
0.06938
0.06925
0.06893
0.07015
-0.03404
-0.03405
0.06958
0.06957
0.06957
0.06958
-0.03418
-0.03424
0.06953
0.06956
0.06958
0.06951
-0.03406
-0.03406
0.06951
0.06958
0.06958
0.06946
-0.03403
-0.03409
0.06912
0.06966
0.06955
0.06925
-0.06700
-0.04593
0.08047
0.07951
0.03399
0.03476
-0.06557
-0.04558
0.08076
0.07715
0.03269
0.03574
-0.06515
-0.04273
0.07547
0.08322
0.03359
0.02805
-0.06881
-0.04814
0.08607
0.07453
0.02868
0.03961
-0.06376
-0.04356
0.07936
0.07602
0.03176
0.03380
-0.06580
-0.04527
0.07974
0.07991
0.03426
0.03406
-0.06550
-0.04482
0.07976
0.07977
0.03401
0.03411
-0.06559
-0.04491
0.07983
0.07988
0.03423
0.03420
-0.06554
-0.04488
0.07986
0.07975
0.03414
0.03418
-0.06560
-0.04495
0.07989
0.07967
0.03388
0.03419
-0.06604
-0.04562
0.07996
0.08001
0.03449
0.03454
-0.06544
-0.04477
0.07984
0.07968
0.03393
0.03415
-0.06579
-0.04515
0.07990
0.07997
0.03439
0.03427
-0.06501
-0.04391
0.07964
0.07970
0.03357
0.03356
-0.06552
-0.04485
0.07974
0.07992
0.03425
0.03411
-0.06556
-0.04499
0.07950
0.07998
0.03440
0.03403
-0.06536
-0.04475
0.07947
0.07980
0.03414
0.03398
-0.06592
-0.04515
0.07923
0.08055
0.03462
0.03322
-0.06556
-0.04476
0.07917
0.08046
0.03433
0.03312
-0.06567
-0.04496
0.07995
0.07982
0.03417
0.03428
-0.06555
-0.04488
0.07992
0.07980
0.03408
0.03423
-0.06562
-0.04503
0.07993
0.07983
0.03417
0.03426
-0.06553
-0.04487
0.07983
0.07987
0.03420
0.03418
-0.06556
-0.04489
0.07987
0.07987
0.03421
0.03421
-0.06552
-0.04487
0.07984
0.07986
0.03416
0.03418
-0.06444
-0.04378
0.07902
0.07832
0.03297
0.03313
-0.06602
-0.04529
0.07928
0.08028
0.03461
0.03378
-0.06818
-0.04830
0.07838
0.08188
0.03743
0.03370
-0.06421
-0.04285
0.07925
0.07897
0.03218
0.03238
-0.06640
-0.04573
0.08037
0.07955
0.03408
0.03477
-0.06220
-0.04060
0.07784
0.07467
0.03384
0.03004
-0.06208
-0.04206
0.07882
0.07506
0.03245
0.03641
-0.06060
-0.04253
0.07751
0.07127
0.03145
0.03732
-0.05504
-0.03111
0.06867
0.07423
0.02564
0.01753
-0.05175
-0.09446
0.09782
0.14129
0.02499
0.02469
-0.06064
-0.02873
0.08425
0.07097
0.01679
0.02977
-0.06232
-0.03528
0.08615
0.07560
0.02494
0.03769
-0.01210
0.00800
0.13544
0.14889
0.02582
0.02578
-0.05910
-0.04214
0.07351
0.07724
0.03723
0.03244
-0.05913
-0.04223
0.07688
0.07667
0.03429
0.03528
-0.06555
-0.04489
0.07988
0.07988
0.03422
0.03421
-0.06551
-0.04485
0.07988
0.07986
0.03419
0.03421
-0.06555
-0.04489
0.07986
0.07989
0.03423
0.03420
-0.06554
-0.04488
0.07989
0.07986
0.03419
0.03421
-0.06553
-0.04487
0.07988
0.07987
0.03420
0.03421
-0.06554
-0.04488
0.07985
0.07986
0.03420
0.03416
-0.06554
-0.04488
0.07988
0.07986
0.03420
0.03421
-0.06554
-0.04488
0.07986
0.07987
0.03420
0.03420
-0.06559
-0.04496
0.07986
0.07988
0.03421
0.03418
-0.06554
-0.04488
0.07984
0.07988
0.03421
0.03414
-0.06597
-0.04527
0.07893
0.08060
0.03456
0.03286
-0.06549
-0.04488
0.07921
0.07976
0.03406
0.03375
-0.06595
-0.04524
0.08069
0.07907
0.03304
0.03475
-0.06586
-0.04514
0.07980
0.07977
0.03414
0.03419
-0.06544
-0.04481
0.07930
0.07974
0.03409
0.03380
-0.06561
-0.04493
0.07986
0.07984
0.03416
0.03419
-0.06560
-0.04501
0.07992
0.07969
0.03410
0.03437
-0.06549
-0.04470
0.07961
0.08006
0.03427
0.03389
-0.06554
-0.04489
0.07984
0.07972
0.03410
0.03418
-0.06566
-0.04497
0.08001
0.07969
0.03398
0.03424
0.07236
0.07259
0.02022
0.01958
0.01670
0.01694
0.07183
0.07194
0.02099
0.01895
0.01630
0.01763
0.07186
0.07188
0.02060
0.02021
0.01689
0.01748
0.07217
0.07212
0.02036
0.02003
0.01663
0.01720
0.07183
0.07235
0.02268
0.01799
0.01561
0.01812
0.07179
0.07184
0.02079
0.02015
0.01691
0.01756
0.07273
0.07202
0.02121
0.01934
0.01564
0.01852
0.07720
0.08806
0.01142
0.01646
0.01776
0.00183
0.07005
0.07055
0.02192
0.01987
0.01804
0.01895
0.08191
-0.09171
0.04345
0.02511
0.03973
0.02510
0.06341
0.06659
0.02259
0.02169
0.02068
0.01734
0.05712
-0.19280
0.03732
0.02545
0.02094
0.02569
0.06761
0.06760
0.01528
0.02625
0.02382
0.01311
0.07085
0.07128
0.02061
0.02044
0.01742
0.01728
0.07429
0.07477
0.01849
0.01902
0.01591
0.01432
0.07203
0.07207
0.02046
0.02055
0.01738
0.01730
0.07200
0.07203
0.02049
0.02056
0.01739
0.01734
0.07209
0.07208
0.02052
0.02048
0.01732
0.01734
0.07211
0.07211
0.02054
0.02050
0.01732
0.01735
0.07209
0.07209
0.02052
0.02051
0.01733
0.01734
0.07195
0.07187
0.02048
0.02050
0.01733
0.01730
0.07206
0.07207
0.02051
0.02052
0.01734
0.01734
0.07206
0.07205
0.02044
0.02051
0.01733
0.01721
0.07204
0.07205
0.02021
0.02047
0.01730
0.01713
0.07242
0.07249
0.02079
0.01973
0.01660
0.01759
0.07207
0.07208
0.02058
0.02043
0.01727
0.01739
0.07179
0.07136
0.02091
0.02027
0.01680
0.01805
0.07216
0.07214
0.02043
0.02048
0.01728
0.01729
0.07034
0.07102
0.02216
0.01954
0.01726
0.01847
0.07206
0.07207
0.02051
0.02055
0.01738
0.01732
0.07158
0.07123
0.02055
0.02069
0.01737
0.01752
0.07207
0.07207
0.02039
0.02057
0.01738
0.01727
0.07219
0.07223
0.02029
0.02048
0.01731
0.01695
0.07200
0.07204
0.02053
0.02052
0.01736
0.01734
0.07359
0.07399
0.01892
0.01927
0.01654
0.01474
0.07187
0.07186
0.01964
0.02093
0.01768
0.01674
0.06872
0.06756
0.02012
0.02245
0.01839
0.01783
0.06845
0.06965
0.02525
0.01431
0.01323
0.02158
0.07211
0.07210
0.02051
0.02049
0.01730
0.01733
0.07197
0.07201
0.02057
0.02044
0.01723
0.01738
0.07225
0.07224
0.02015
0.02040
0.01722
0.01704
0.07209
0.07208
0.02050
0.02052
0.01734
0.01732
0.07207
0.07208
0.02052
0.02052
0.01734
0.01734
0.07209
0.07208
0.02051
0.02050
0.01733
0.01732
0.07209
0.07209
0.02052
0.02051
0.01733
0.01734
0.07207
0.07204
0.02052
0.02051
0.01733
0.01734
0.07207
0.07214
0.02043
0.02046
0.01734
0.01715
0.07207
0.07208
0.02051
0.02045
0.01730
0.01734
0.07937
0.07538
0.02226
0.01725
0.01251
0.02101
0.07538
-0.03637
0.03026
0.02500
0.04517
0.02461
0.07365
0.07295
0.01851
0.02101
0.01675
0.01683
0.10511
-0.12486
0.06612
0.02560
0.04487
0.02504
0.06988
0.07107
0.02216
0.02108
0.01816
0.01824
0.07183
0.07178
0.02085
0.02042
0.01695
0.01790
0.07229
0.07176
0.01932
0.02169
0.01807
0.01652
0.07100
0.07139
0.02086
0.02053
0.01763
0.01750
0.07262
0.07238
0.02028
0.02019
0.01682
0.01729
0.07209
0.07210
0.02048
0.02041
0.01718
0.01730
0.07200
0.07201
0.02052
0.02022
0.01712
0.01734
0.07191
0.07185
0.02050
0.02050
0.01730
0.01733
0.07195
0.07051
-0.00572
-0.00465
0.06763
-0.00766
-0.00478
0.07436
-0.00498
-0.01027
0.06817
-0.00791
-0.00227
-0.00794
-0.00722
0.07102
0.07113
-0.00566
-0.00578
0.07103
-0.00587
-0.00577
0.07111
-0.00567
-0.00571
0.07097
-0.00576
-0.00572
-0.00592
-0.00570
0.07121
0.07105
-0.00555
-0.00534
0.07090
-0.00601
-0.00570
0.07099
0.07123
-0.00542
-0.00567
-0.00615
-0.00603
-0.00562
-0.00585
0.07068
0.07121
-0.00559
-0.00590
0.07078
0.07102
-0.00588
-0.00592
0.07148
-0.00537
-0.00607
-0.00559
-0.00630
-0.00572
-0.00557
0.07114
0.07107
-0.00577
-0.00567
0.07109
-0.00571
-0.00566
0.07112
-0.00570
-0.00572
0.07110
-0.00569
-0.00568
-0.00574
-0.00571
0.07014
0.07061
-0.00652
-0.00735
0.07171
-0.00508
-0.00629
0.07143
-0.00403
-0.00516
0.07004
-0.00794
-0.00685
-0.00612
-0.00485
0.06642
0.08366
-0.00553
-0.01956
0.06058
-0.00669
-0.00188
0.05505
-0.00922
-0.00152
0.09636
-0.00777
-0.03512
-0.01749
-0.02824
0.09599
0.06421
-0.01927
-0.00213
0.10328
0.06345
-0.02301
0.00008
-0.03540
-0.04049
0.05930
-0.00430
-0.00464
-0.00586
-0.00384
0.07112
0.07112
-0.00567
-0.00568
0.07110
-0.00570
-0.00569
0.07113
-0.00567
-0.00569
0.07110
-0.00570
-0.00568
-0.00570
-0.00569
0.07109
0.07110
-0.00570
-0.00573
0.07111
0.07109
-0.00570
-0.00569
-0.00569
-0.00570
0.07111
-0.00569
-0.00570
-0.00569
-0.00574
0.07051
0.07152
-0.00547
-0.00640
0.07100
-0.00594
-0.00614
0.07056
-0.00634
-0.00541
0.07098
-0.00572
-0.00569
-0.00592
-0.00610
0.07112
0.07106
-0.00574
-0.00570
0.07095
-0.00579
-0.00563
0.07119
-0.00568
-0.00590
0.07099
-0.00579
-0.00576
-0.00579
-0.00565
0.05611
0.05664
0.07764
0.07701
0.05646
0.05617
0.07713
0.07737
-0.01514
-0.01678
0.04942
-0.01528
-0.01698
0.04991
-0.01636
0.04984
-0.01646
0.04949
0.05549
0.05777
0.07825
0.07586
0.05684
0.05643
0.07724
0.07777
-0.01521
-0.01647
0.04911
-0.01591
-0.01762
0.05073
-0.01653
0.05011
-0.01711
0.04990
0.05270
0.05008
0.07368
0.07832
0.05431
0.06292
0.07531
0.06858
-0.01500
-0.01305
0.04838
-0.00536
-0.01380
0.03429
-0.01471
0.04966
-0.02429
0.03680
0.04218
0.06060
0.08771
0.06725
0.06331
0.04037
0.05287
0.06936
-0.01299
-0.02325
0.02837
-0.01017
-0.01445
0.05035
-0.01399
0.05560
-0.00589
0.03944
0.05397
0.05703
0.07717
0.07327
0.05675
0.05404
0.07587
0.07835
-0.01431
-0.01529
0.04821
-0.01460
-0.01492
0.05177
-0.01601
0.04972
-0.01666
0.04582
0.05617
0.05626
0.07717
0.07720
0.05615
0.05628
0.07718
0.07715
-0.01443
-0.01586
0.04939
-0.01579
0.04942
-0.01449
-0.01589
0.04963
-0.01587
0.04965
0.05639
0.05637
0.07729
0.07732
0.05638
0.05638
0.07732
0.07732
-0.01457
-0.01598
0.04972
-0.01457
-0.01597
0.04970
-0.01596
0.04970
-0.01596
0.04970
0.05632
0.05635
0.07730
0.07721
0.05636
0.05631
0.07728
0.07729
-0.01455
-0.01594
0.04967
-0.01455
-0.01595
0.04967
-0.01595
0.04969
-0.01595
0.04960
0.05594
0.05635
0.07731
0.07703
0.05630
0.05595
0.07668
0.07723
-0.01463
-0.01605
0.04906
-0.01596
0.04970
-0.01460
-0.01600
0.04967
-0.01598
0.04943
0.05642
0.05647
0.07745
0.07734
0.05660
0.05626
0.07706
0.07743
-0.01495
-0.01641
0.04968
-0.01467
-0.01609
0.04977
-0.01621
0.05012
-0.01603
0.04964
0.05559
0.05520
0.07678
0.07722
0.05481
0.05736
0.07669
0.07420
-0.01261
-0.01466
0.04821
-0.01360
0.04930
-0.01371
-0.01522
0.04844
-0.01548
0.05062
0.05640
0.05632
0.07724
0.07733
0.05635
0.05637
0.07732
0.07729
-0.01453
-0.01593
0.04973
-0.01592
0.04967
-0.01451
-0.01590
0.04966
-0.01591
0.04969
0.05639
0.05617
0.07694
0.07728
0.05617
0.05639
0.07736
0.07720
-0.01452
-0.01584
0.04980
-0.01452
-0.01588
0.04959
-0.01595
0.04934
-0.01593
0.04970
0.05665
0.05453
0.07622
0.07815
0.05488
0.05622
0.07682
0.07504
-0.01420
-0.01588
0.04972
-0.01411
-0.01640
0.04659
-0.01533
0.04874
-0.01477
0.05030
0.05644
0.05456
0.07625
0.07820
0.05429
0.05843
0.07659
0.07234
-0.01357
-0.01541
0.04915
-0.01434
0.04882
-0.01562
-0.01670
0.04754
-0.01749
0.05273
0.05634
0.05641
0.07736
0.07728
0.05640
0.05636
0.07730
0.07733
-0.01459
-0.01601
0.04967
-0.01596
0.04974
-0.01460
-0.01602
0.04973
-0.01597
0.04969
0.05628
0.05646
0.07740
0.07723
0.05662
0.05611
0.07697
0.07757
-0.01492
-0.01619
0.04960
-0.01647
0.04994
-0.01475
-0.01609
0.04979
-0.01619
0.04948
0.05637
0.05635
0.07727
0.07731
0.05635
0.05637
0.07732
0.07729
-0.01455
-0.01594
0.04971
-0.01595
0.04966
-0.01455
-0.01594
0.04968
-0.01595
0.04970
0.05637
0.05636
0.07731
0.07731
0.05636
0.05638
0.07731
0.07730
-0.01456
-0.01596
0.04970
-0.01456
-0.01596
0.04969
-0.01595
0.04970
-0.01595
0.04971
0.05633
0.05635
0.07727
0.07729
0.05632
0.05635
0.07728
0.07728
-0.01455
-0.01592
0.04964
-0.01457
-0.01595
0.04969
-0.01598
0.04960
-0.01599
0.04969
0.05909
0.05098
0.07306
0.08245
0.04257
0.06876
0.07234
0.05383
-0.01494
-0.01671
0.05227
-0.00873
0.04123
-0.01315
-0.02113
0.04022
-0.02218
0.04293
0.05370
0.05282
0.07626
0.07669
0.06784
0.05312
0.06534
0.07266
-0.00384
-0.01272
0.04170
-0.01541
-0.01443
0.04937
-0.02901
0.03658
-0.01257
0.04922
0.05649
0.05653
0.07760
0.07751
0.05626
0.05661
0.07741
0.07712
-0.01491
-0.01646
0.04971
-0.01611
0.04973
-0.01494
-0.01705
0.04928
-0.01616
0.05006
0.09150
0.03620
0.07544
0.21500
0.13954
-0.24421
-0.05797
-0.09882
-0.07138
0.04488
-0.14494
-0.18470
0.24012
-0.06879
0.29787
0.05928
0.05418
0.07244
0.07745
0.05433
0.05720
0.07875
0.07608
-0.01582
-0.01694
0.05389
-0.01711
0.04697
-0.01409
-0.01480
0.04836
-0.01593
0.05013
0.05623
0.05714
0.07622
0.07608
0.05644
0.05592
0.07697
0.07767
-0.01382
-0.01449
0.04962
-0.01556
0.04938
-0.01471
-0.01605
0.05052
-0.01606
0.04943
0.05636
0.05637
0.07731
0.07730
0.05637
0.05636
0.07730
0.07731
-0.01455
-0.01594
0.04969
-0.01594
0.04970
-0.01455
-0.01594
0.04970
-0.01594
0.04969
0.05637
0.05632
0.07728
0.07731
0.05631
0.05636
0.07727
0.07722
-0.01471
-0.01605
0.04968
-0.01618
0.04965
-0.01472
-0.01606
0.04964
-0.01618
0.04970
0.05637
0.05628
0.07725
0.07732
0.05628
0.05636
0.07730
0.07717
-0.01455
-0.01594
0.04970
-0.01595
0.04964
-0.01458
-0.01597
0.04956
-0.01596
0.04970
0.05636
0.05599
0.07677
0.07723
0.05601
0.05638
0.07745
0.07705
-0.01454
-0.01583
0.04988
-0.01605
0.04916
-0.01456
-0.01593
0.04942
-0.01598
0.04966
-0.01837
-0.01738
-0.01865
-0.01619
0.08617
0.08532
-0.01805
-0.01511
0.08327
-0.01804
-0.02311
0.09279
-0.01838
-0.01453
0.07902
-0.01743
-0.01709
-0.01750
-0.01725
0.08548
0.08568
-0.01710
-0.01720
0.08560
-0.01718
-0.01714
0.08564
-0.01715
-0.01719
0.08548
-0.01760
-0.01697
-0.01794
-0.01641
0.08552
0.08574
-0.01707
-0.01715
0.08554
-0.01759
-0.01666
-0.01729
-0.01710
0.08578
0.08567
-0.01724
-0.01690
-0.01719
-0.01726
0.08510
0.08572
-0.01692
-0.01729
-0.01704
-0.01728
0.08500
0.08561
-0.01784
-0.01767
0.08681
-0.01716
-0.01728
-0.01714
-0.01713
0.08573
0.08559
-0.01723
-0.01711
0.08559
-0.01714
-0.01716
0.08564
-0.01716
-0.01713
0.08564
-0.01645
-0.01783
-0.01524
-0.01915
0.08520
0.08241
-0.01744
-0.01773
0.08594
-0.02082
-0.01528
0.08703
-0.01604
-0.01850
0.08575
-0.01716
-0.01526
0.00392
-0.04950
0.08426
0.05188
-0.01800
-0.01473
0.08360
-0.01935
-0.00985
0.07955
0.01751
-0.08693
0.05060
0.01557
-0.06855
-0.01044
-0.01703
0.04438
0.07908
0.02153
-0.08489
-0.01571
-0.01415
0.03418
0.08319
-0.01530
-0.01694
0.08491
-0.01715
-0.01712
-0.01715
-0.01713
0.08566
0.08565
-0.01711
-0.01715
0.08563
-0.01716
-0.01715
0.08566
-0.01714
-0.01713
0.08564
-0.01714
-0.01714
-0.01714
-0.01720
0.08563
0.08562
-0.01715
-0.01714
-0.01715
-0.01714
0.08565
0.08562
-0.01722
-0.01716
0.08565
-0.01738
-0.01705
-0.01793
-0.01807
0.08470
0.08716
-0.01717
-0.01747
0.08558
-0.01732
-0.01693
0.08485
-0.01745
-0.01712
0.08554
-0.01721
-0.01723
-0.01721
-0.01715
0.08565
0.08563
-0.01721
-0.01695
0.08536
-0.01724
-0.01733
0.08595
-0.01714
-0.01720
0.08545
0.04870
0.04814
0.04801
0.04828
0.04855
0.04748
0.04874
0.04917
0.04635
0.07612
0.00023
0.00906
0.04203
0.04578
0.05242
0.04843
0.04839
0.04847
0.04844
0.04844
0.04842
0.04827
0.04840
0.04841
0.04911
0.04817
0.04744
0.04841
0.04849
0.04840
0.04784
0.04863
0.04835
0.04843
0.04838
0.04846
0.05099
0.04325
0.04705
0.04828
0.04852
0.04839
0.04844
0.04843
0.04844
0.04844
0.04841
0.04843
0.07412
0.00644
0.01931
0.04872
0.04750
0.04836
0.04851
0.04759
0.04893
0.04845
0.04838
0.04824
-0.22770
-0.04463
-0.09260
0.01784
-0.24688
0.11353
0.18780
-0.17670
-0.30548
-0.12530
-0.24594
-0.03785
0.10000
