# vtk DataFile Version 3.0
Point representing Sub_cellular elem model
ASCII

DATASET UNSTRUCTURED_GRID
POINTS 663 float
-0.00142 1.73570 0.99456 
0.00297 1.74137 -1.15782 
1.74142 1.07678 -0.07650 
1.74237 -1.07533 -0.07489 
0.00384 -1.74230 -1.15461 
-0.00272 -1.73386 0.99534 
1.06630 -0.00240 1.67801 
-1.07867 0.00493 1.67051 
1.08129 -0.00067 -1.81816 
-1.07186 -0.00130 -1.82332 
-1.74044 1.07675 -0.08583 
-1.74080 -1.07583 -0.08421 
0.00046 2.05159 -0.08163 
1.02373 1.65859 0.55524 
0.63138 1.02145 1.58435 
-0.63026 1.02150 1.59078 
-1.02473 1.65807 0.55018 
1.02824 1.66076 -0.71306 
0.63881 1.02565 -1.73952 
-0.63012 1.02542 -1.74266 
-1.02454 1.66080 -0.71852 
2.05324 0.00085 -0.07523 
1.65664 0.63301 0.94863 
1.66394 0.63451 -1.10257 
1.02936 -1.66062 -0.71034 
1.02436 -1.65711 0.55757 
1.65582 -0.63274 0.95015 
1.66439 -0.63428 -1.10150 
0.00125 -2.05151 -0.07866 
0.63936 -1.02713 -1.73747 
-0.62960 -1.02759 -1.74049 
-1.02411 -1.66137 -0.71566 
0.62584 -1.01982 1.58812 
-0.63746 -1.01691 1.58643 
-1.02590 -1.65663 0.55164 
0.18130 0.37616 2.35956 
-1.65758 0.63537 0.93989 
-1.65911 -0.63011 0.94008 
0.00547 -0.00132 -2.13146 
-1.65852 0.63406 -1.11120 
-1.65833 -0.63528 -1.10997 
-2.05211 0.00068 -0.08623 
-0.00071 1.96808 0.48970 
0.52091 1.76718 0.81433 
0.32060 1.44175 1.33833 
-0.32385 1.44216 1.33807 
-0.52313 1.76684 0.81189 
0.00178 1.97146 -0.65308 
0.52611 1.77155 -0.97511 
0.32740 1.44759 -1.49871 
-0.31986 1.44753 -1.50036 
-0.52106 1.77156 -0.97788 
1.44651 1.41813 0.24589 
1.44898 1.41873 -0.40099 
1.97177 0.57213 -0.07574 
1.76950 0.89496 0.44676 
1.77339 0.89548 -0.59974 
1.97231 -0.57051 -0.07490 
1.45012 -1.41791 -0.39878 
1.44751 -1.41665 0.24807 
1.76996 -0.89334 0.44822 
1.77415 -0.89453 -0.59837 
0.52710 -1.77201 -0.97202 
0.00272 -1.97184 -0.64980 
0.32816 -1.44883 -1.49591 
-0.31915 -1.44909 -1.49748 
-0.52032 -1.77244 -0.97468 
0.52070 -1.76574 0.81607 
-0.00058 -1.96735 0.49191 
0.31807 -1.43976 1.33828 
-0.32739 -1.43895 1.33638 
-0.52440 -1.76524 0.81286 
0.89610 0.52031 1.69908 
1.41365 0.31986 1.37097 
1.41160 -0.32336 1.37271 
0.89037 -0.52279 1.70405 
0.54792 0.00074 1.95195 
-0.90001 0.52950 1.69909 
-0.90412 -0.52057 1.69849 
-0.58206 0.00398 1.94240 
-1.41726 0.32676 1.36362 
-1.41865 -0.31799 1.36351 
0.89980 0.52276 -1.84917 
1.42276 0.32328 -1.52439 
1.42295 -0.32387 -1.52379 
0.90008 -0.52428 -1.84811 
0.57675 -0.00106 -2.04913 
-0.89045 0.52230 -1.85349 
-0.89018 -0.52487 -1.85235 
-0.56618 -0.00141 -2.05177 
-1.41501 0.32262 -1.53147 
-1.41487 -0.32471 -1.53079 
-1.44648 1.41794 0.23827 
-1.44677 1.41875 -0.40872 
-1.76973 0.89526 0.43729 
-1.77044 0.89534 -0.60917 
-1.97076 0.57210 -0.08629 
-1.44677 -1.41871 -0.40642 
-1.44726 -1.41665 0.24005 
-1.77069 -0.89269 0.43829 
-1.77040 -0.89550 -0.60763 
-1.97100 -0.57088 -0.08545 
0.55550 1.94939 0.22538 
-0.55582 1.94915 0.22244 
0.55740 1.95091 -0.38570 
-0.55510 1.95090 -0.38868 
0.89615 1.39034 1.12609 
1.05059 1.76195 -0.07874 
1.39104 1.20421 0.82188 
-0.00391 1.04854 1.69198 
1.20189 0.89687 1.31533 
0.30406 0.55712 1.90585 
-0.89743 1.39045 1.12381 
-0.30324 0.53741 1.93049 
-1.20233 0.90081 1.31191 
-1.04960 1.76183 -0.08430 
-1.39173 1.20457 0.81518 
0.90382 1.39458 -1.28470 
1.39752 1.20609 -0.97776 
0.00460 1.04989 -1.84272 
1.20994 0.90009 -1.47221 
0.31070 0.55533 -2.03003 
-0.89739 1.39445 -1.28937 
-0.30048 0.55516 -2.03147 
-1.20259 0.89971 -1.47833 
-1.39271 1.20597 -0.98511 
1.94930 0.30602 0.48028 
1.95337 0.30615 -0.63188 
1.94944 -0.30463 0.48076 
1.95364 -0.30503 -0.63141 
1.75812 -0.00036 0.97374 
1.76592 0.00015 -1.12629 
1.05184 -1.76117 -0.07608 
1.39835 -1.20594 -0.97573 
0.55855 -1.95080 -0.38266 
0.90463 -1.39518 -1.28217 
1.39070 -1.20259 0.82409 
0.55643 -1.94873 0.22805 
0.89467 -1.38857 1.12811 
1.19848 -0.89687 1.31851 
1.21046 -0.90076 -1.47053 
-0.55454 -1.95114 -0.38562 
-0.55582 -1.94874 0.22489 
0.00515 -1.05192 -1.84052 
0.31099 -0.55756 -2.02884 
-0.89680 -1.39588 -1.28666 
-0.30018 -0.55777 -2.03025 
-1.20220 -0.90160 -1.47648 
-1.04968 -1.76156 -0.08178 
-1.39236 -1.20693 -0.98286 
-0.00756 -1.04658 1.68963 
0.29641 -0.55100 1.91622 
-0.90078 -1.38693 1.12282 
-0.31004 -0.53862 1.93129 
-1.20623 -0.89406 1.31065 
-1.39381 -1.20122 0.81571 
-1.76027 0.00298 0.96350 
-1.94964 0.30689 0.46956 
-1.95003 -0.30363 0.46989 
-1.76015 -0.00064 -1.13534 
-1.95019 0.30567 -0.64218 
-1.95017 -0.30582 -0.64164 
-0.00112 1.86826 0.75324 
0.25890 1.76804 0.91510 
0.15912 1.60572 1.17618 
-0.16227 1.60579 1.17567 
-0.26151 1.76790 0.91393 
0.00240 1.87303 -0.91666 
0.26380 1.77328 -1.07718 
0.16472 1.61179 -1.33822 
-0.15793 1.61178 -1.33905 
-0.25825 1.77329 -1.07855 
1.61126 1.25748 0.08427 
1.61250 1.25768 -0.23821 
1.87311 0.83565 -0.07608 
1.77231 0.99665 0.18445 
1.77428 0.99689 -0.33730 
1.87388 -0.83410 -0.07483 
1.61358 -1.25652 -0.23630 
1.61229 -1.25601 0.08618 
1.77311 -0.99501 0.18597 
1.77516 -0.99568 -0.33580 
0.26473 -1.77399 -1.07400 
0.00332 -1.87367 -0.91337 
0.16555 -1.61288 -1.33517 
-0.15714 -1.61302 -1.33596 
-0.25742 -1.77421 -1.07531 
0.25812 -1.76646 0.91640 
-0.00162 -1.86702 0.75482 
0.15722 -1.60360 1.17642 
-0.16456 -1.60334 1.17538 
-0.26278 -1.76618 0.91473 
0.99675 0.25645 1.70421 
1.25229 0.15633 1.53871 
1.25078 -0.16146 1.53996 
0.99400 -0.26014 1.70686 
0.82187 -0.00040 1.82387 
-1.00803 0.26502 1.69836 
-1.00789 -0.25565 1.69954 
-0.84112 0.00323 1.81631 
-1.25993 0.16442 1.53115 
-1.26020 -0.15478 1.53155 
1.00127 0.26026 -1.85044 
1.26199 0.16081 -1.68856 
1.26208 -0.16180 -1.68824 
1.00141 -0.26171 -1.84992 
0.84023 -0.00088 -1.95014 
-0.99181 0.25970 -1.85522 
-0.99167 -0.26233 -1.85465 
-0.83013 -0.00138 -1.95407 
-1.25331 0.16014 -1.69470 
-1.25323 -0.16253 -1.69435 
-1.61078 1.25740 0.07567 
-1.61096 1.25767 -0.24683 
-1.77206 0.99667 0.17496 
-1.77240 0.99685 -0.34677 
-1.87213 0.83563 -0.08610 
-1.61117 -1.25721 -0.24486 
-1.61134 -1.25627 0.07744 
-1.77270 -0.99504 0.17631 
-1.77252 -0.99647 -0.34518 
-1.87245 -0.83456 -0.08486 
-0.00017 2.03008 0.20858 
0.00113 2.03182 -0.37188 
0.28457 2.02546 0.06754 
-0.28428 2.02537 0.06602 
0.28538 2.02629 -0.22928 
-0.28378 2.02627 -0.23081 
0.77857 1.73057 0.69321 
1.24874 1.55338 0.40453 
0.80364 1.82606 0.39061 
0.97779 1.54008 0.85145 
1.04409 1.73526 0.24296 
1.21823 1.44967 0.70377 
0.48035 1.24610 1.47516 
0.77314 0.77992 1.65771 
0.77852 1.21635 1.37225 
0.32139 1.04459 1.66137 
0.92781 0.97769 1.46392 
0.46844 0.80270 1.76087 
-0.48250 1.24635 1.47733 
-0.77260 0.78531 1.66234 
-0.32470 1.04288 1.66710 
-0.77892 1.21710 1.37337 
-0.46642 0.79729 1.77495 
-0.92741 0.98140 1.46478 
-0.78020 1.73004 0.68949 
-1.24919 1.55302 0.39811 
-0.80443 1.82563 0.38648 
-0.97921 1.53966 0.84728 
-1.04424 1.73491 0.23754 
-1.21914 1.44938 0.69790 
0.78362 1.73382 -0.85256 
1.25234 1.55463 -0.56096 
0.80682 1.82803 -0.54963 
1.04643 1.73633 -0.40052 
0.98416 1.54335 -1.00969 
1.22390 1.45176 -0.86059 
0.48710 1.25031 -1.63401 
0.77782 0.78060 -1.81198 
0.78657 1.22110 -1.53044 
0.32640 1.04469 -1.81595 
0.93523 0.98092 -1.62147 
0.47506 0.80449 -1.90694 
-0.47893 1.25017 -1.63643 
-0.76872 0.78025 -1.81575 
-0.31733 1.04456 -1.81752 
-0.77892 1.22090 -1.53440 
-0.46550 0.80427 -1.90920 
-0.92712 0.98060 -1.62613 
-0.77921 1.73385 -0.85671 
-1.24939 1.55467 -0.56762 
-0.80380 1.82806 -0.55393 
-1.04412 1.73635 -0.40609 
-0.97907 1.54332 -1.01487 
-1.21959 1.45175 -0.86707 
2.03263 0.29102 -0.07546 
2.03291 -0.28934 -0.07504 
2.02631 0.14920 0.20914 
2.02838 0.14915 -0.36000 
2.02644 -0.14750 0.20936 
2.02853 -0.14767 -0.35978 
1.73068 0.77260 0.70416 
1.54982 0.48050 1.17292 
1.53943 0.92945 0.90327 
1.44727 0.78006 1.14283 
1.82498 0.46997 0.72853 
1.73227 0.32089 0.96812 
1.73640 0.77350 -0.85755 
1.55829 0.48286 -1.32717 
1.54639 0.93112 -1.05818 
1.45529 0.78250 -1.29833 
1.83085 0.47060 -0.88118 
1.73979 0.32198 -1.12132 
1.25349 -1.55414 -0.55848 
0.78469 -1.73399 -0.84963 
1.04766 -1.73587 -0.39780 
1.22490 -1.45162 -0.85818 
0.80800 -1.82789 -0.54670 
0.98513 -1.54355 -1.00704 
1.24961 -1.55189 0.40688 
0.77885 -1.72913 0.69531 
1.04517 -1.73413 0.24549 
1.21844 -1.44795 0.70603 
0.80450 -1.82499 0.39309 
0.97760 -1.53834 0.85355 
1.73059 -0.77137 0.70560 
1.54823 -0.48188 1.17459 
1.82486 -0.46914 0.72940 
1.73179 -0.32133 0.96889 
1.53865 -0.92836 0.90528 
1.44527 -0.78008 1.14520 
1.73700 -0.77289 -0.85631 
1.55859 -0.48304 -1.32632 
1.83122 -0.46991 -0.88043 
1.74002 -0.32170 -1.12078 
1.54704 -0.93094 -1.05661 
1.45579 -0.78272 -1.29694 
0.00203 -2.03198 -0.36871 
0.00038 -2.02973 0.21124 
0.28640 -2.02622 -0.22622 
0.28546 -2.02514 0.07038 
-0.28311 -2.02636 -0.22777 
-0.28384 -2.02520 0.06878 
0.48777 -1.25169 -1.63153 
0.77823 -0.78212 -1.81041 
0.78724 -1.22213 -1.52810 
0.93577 -0.98201 -1.61957 
0.32695 -1.04648 -1.81380 
0.47548 -0.80638 -1.90526 
-0.47830 -1.25206 -1.63386 
-0.76832 -0.78265 -1.81407 
-0.31679 -1.04672 -1.81532 
-0.77834 -1.22273 -1.53191 
-0.46508 -0.80671 -1.90746 
-0.92665 -0.98268 -1.62408 
-0.77860 -1.73461 -0.85364 
-1.24917 -1.55497 -0.56502 
-0.80332 -1.82845 -0.55093 
-0.97852 -1.54432 -1.01203 
-1.04388 -1.73651 -0.40334 
-1.21919 -1.45252 -0.86446 
0.47695 -1.24444 1.47599 
0.76669 -0.78052 1.66286 
0.77519 -1.21478 1.37467 
0.92314 -0.97738 1.46756 
0.31723 -1.04269 1.66226 
0.46154 -0.79933 1.76731 
-0.48782 -1.24264 1.47381 
-0.77913 -0.77777 1.65997 
-0.33106 -1.04080 1.66228 
-0.78404 -1.21250 1.37058 
-0.47448 -0.79556 1.77083 
-0.93295 -0.97468 1.46229 
-0.78146 -1.72855 0.69069 
-1.25019 -1.55163 0.39979 
-0.80497 -1.82482 0.38848 
-1.04477 -1.73414 0.23965 
-0.98129 -1.53729 0.84774 
-1.22088 -1.44707 0.69884 
0.38209 -0.26391 2.17570 
0.22584 -0.34018 2.45914 
0.38534 0.23557 2.16680 
-0.04865 0.11240 2.70985 
-0.12430 -0.50006 2.15526 
-0.33528 -0.36133 2.20348 
-1.55159 0.48496 1.16491 
-1.73123 0.77359 0.69492 
-1.44815 0.78327 1.13623 
-1.54008 0.93079 0.89559 
-1.73376 0.32397 0.95844 
-1.82571 0.47154 0.71848 
-1.55323 -0.47794 1.16479 
[...]
CELL_DATA 1981
SCALARS Strain double 
LOOKUP_TABLE default 
-0.08587
-0.09001
-0.08683
-0.08743
-0.08965
-0.08781
-0.08743
-0.08773
-0.08755
-0.08752
-0.08810
-0.08778
-0.08782
-0.08790
-0.08788
-0.08781
-0.08793
-0.08769
-0.08805
-0.08777
-0.08735
-0.08801
-0.08772
-0.08762
-0.08737
-0.08876
-0.08724
-0.08871
-0.08686
-0.08970
-0.10589
-0.06567
-0.07043
-0.10611
-0.05498
-0.10046
-0.09835
-0.07459
-0.07449
-0.07411
-0.08756
-0.08760
-0.08760
-0.08755
-0.08755
-0.08743
-0.08744
-0.08756
-0.08758
-0.08761
-0.08755
-0.08822
-0.08820
-0.08776
-0.08787
-0.08766
-0.08803
-0.08825
-0.08831
-0.08748
-0.03384
-0.03413
0.06887
0.06846
0.06870
0.06908
-0.03592
-0.03541
0.06857
0.07016
0.06970
0.06831
-0.03090
-0.03883
0.07388
0.06325
0.07217
0.07868
-0.03055
-0.05412
0.04804
0.08919
0.10629
0.07981
-0.03557
-0.03467
0.06763
0.07256
0.07083
0.06639
-0.03413
-0.03421
0.06922
0.06925
0.06926
0.06929
-0.03421
-0.03418
0.06939
0.06970
0.06966
0.06943
-0.03400
-0.03398
0.06969
0.06926
0.06934
0.06965
-0.03423
-0.03435
0.06961
0.06915
0.06910
0.06971
-0.03419
-0.03419
0.06863
0.06915
0.06925
0.06881
-0.03358
-0.03218
0.06898
0.06640
0.06741
0.06823
-0.03431
-0.03428
0.06948
0.06944
0.06934
0.06956
-0.03414
-0.03404
0.06903
0.06950
0.06945
0.06909
-0.03482
-0.03525
0.06942
0.06788
0.06851
0.07017
-0.03428
-0.03370
0.07105
0.06603
0.06620
0.07112
-0.03431
-0.03428
0.06926
0.06965
0.06962
0.06938
-0.03484
-0.03478
0.06926
0.06904
0.06927
0.06918
-0.03416
-0.03413
0.06931
0.06962
0.06968
0.06936
-0.03407
-0.03403
0.06973
0.06919
0.06931
0.06970
-0.03389
-0.03394
0.06966
0.06869
0.06854
0.06975
-0.03092
-0.04531
0.08029
0.07439
0.05650
0.08967
-0.02619
-0.04543
0.05097
0.08260
0.09896
0.07329
-0.03626
-0.03554
0.06922
0.06914
0.07020
0.06862
-0.14738
0.01703
0.04228
-0.13084
-0.05194
-0.03493
-0.03467
0.07216
0.06573
0.06614
0.07137
-0.03283
-0.03366
0.06769
0.06774
0.06722
0.06815
-0.03403
-0.03403
0.06950
0.06946
0.06946
0.06950
-0.03437
-0.03442
0.06932
0.06997
0.07006
0.06910
-0.03455
-0.03468
0.06945
0.07003
0.07010
0.06928
-0.03392
-0.03384
0.06910
0.06825
0.06839
0.06891
-0.06437
-0.04425
0.07859
0.07787
0.03239
0.03292
-0.06797
-0.04698
0.07862
0.08154
0.03509
0.03291
-0.06533
-0.04626
0.08242
0.07603
0.03237
0.03776
-0.06532
-0.04407
0.07493
0.08437
0.03806
0.02957
-0.06767
-0.04683
0.07780
0.08308
0.03595
0.03216
-0.06586
-0.04513
0.07955
0.07985
0.03405
0.03381
-0.06550
-0.04489
0.07962
0.07959
0.03390
0.03397
-0.06576
-0.04507
0.07965
0.08004
0.03434
0.03407
-0.06554
-0.04485
0.08004
0.07948
0.03392
0.03433
-0.06559
-0.04498
0.07994
0.07943
0.03379
0.03429
-0.06639
-0.04597
0.07948
0.07929
0.03359
0.03390
-0.06580
-0.04510
0.07946
0.07948
0.03372
0.03384
-0.06581
-0.04507
0.07915
0.07942
0.03373
0.03362
-0.06592
-0.04503
0.07933
0.07887
0.03275
0.03356
-0.06587
-0.04517
0.07959
0.07950
0.03398
0.03408
-0.06582
-0.04508
0.07978
0.07912
0.03325
0.03391
-0.06587
-0.04508
0.07939
0.07977
0.03402
0.03378
-0.06584
-0.04538
0.07946
0.07882
0.03346
0.03404
-0.06614
-0.04538
0.08002
0.07854
0.03284
0.03429
-0.06582
-0.04516
0.07932
0.07983
0.03424
0.03389
-0.06540
-0.04480
0.07979
0.07939
0.03363
0.03410
-0.06621
-0.04565
0.07981
0.07996
0.03423
0.03417
-0.06572
-0.04502
0.07951
0.08010
0.03436
0.03397
-0.06562
-0.04493
0.08013
0.07937
0.03388
0.03443
-0.06537
-0.04471
0.07998
0.07918
0.03338
0.03427
-0.06674
-0.04603
0.07801
0.08061
0.03407
0.03222
-0.06574
-0.04543
0.07825
0.07904
0.03338
0.03291
-0.06735
-0.04721
0.08196
0.07773
0.03303
0.03741
-0.06416
-0.04257
0.07644
0.08053
0.03435
0.02993
-0.06790
-0.04725
0.07927
0.08011
0.03385
0.03400
-0.06224
-0.03643
0.07632
0.08635
0.03677
0.02873
-0.05563
-0.04020
0.07447
0.07447
0.03397
0.03156
-0.06068
-0.04322
0.07258
0.08275
0.03889
0.02949
-0.06254
-0.04108
0.08243
0.08225
0.03726
0.03065
0.00405
0.27552
0.15770
0.15665
0.02651
0.02639
-0.05149
-0.04337
0.05984
0.08394
0.03951
0.02896
-0.05539
-0.04199
0.06756
0.07984
0.04161
0.03279
-0.04344
0.13789
0.13617
0.02572
0.02538
-0.06579
-0.04607
0.08117
0.07663
0.03253
0.03713
-0.06105
-0.04245
0.07658
0.07570
0.03310
0.03302
-0.06562
-0.04498
0.07984
0.07976
0.03406
0.03422
-0.06568
-0.04507
0.07978
0.07985
0.03415
0.03405
-0.06569
-0.04507
0.07988
0.07975
0.03402
0.03421
-0.06559
-0.04494
0.07982
0.07973
0.03402
0.03420
-0.06555
-0.04487
0.07978
0.07975
0.03409
0.03412
-0.06545
-0.04479
0.07975
0.07982
0.03421
0.03401
-0.06547
-0.04483
0.07974
0.07985
0.03422
0.03395
-0.06555
-0.04487
0.07980
0.07982
0.03417
0.03414
-0.06569
-0.04512
0.07972
0.08017
0.03447
0.03395
-0.06577
-0.04524
0.07978
0.08017
0.03448
0.03404
-0.06562
-0.04512
0.07979
0.07799
0.03272
0.03459
-0.06616
-0.04534
0.07948
0.07996
0.03419
0.03376
-0.06622
-0.04548
0.07785
0.08032
0.03483
0.03240
-0.06590
-0.04527
0.08008
0.07902
0.03372
0.03457
-0.06579
-0.04493
0.07987
0.07876
0.03292
0.03381
-0.06560
-0.04485
0.07875
0.07998
0.03410
0.03323
-0.06633
-0.04597
0.07890
0.07948
0.03393
0.03369
-0.06617
-0.04511
0.07926
0.07879
0.03285
0.03336
-0.06636
-0.04563
0.08019
0.07935
0.03401
0.03471
-0.06543
-0.04468
0.07885
0.07914
0.03344
0.03319
0.07122
0.07112
0.01905
0.02091
0.01740
0.01620
0.07074
0.07053
0.01945
0.02133
0.01756
0.01653
0.07144
0.07161
0.02023
0.02026
0.01719
0.01694
0.07180
0.07198
0.02000
0.02018
0.01719
0.01668
0.07332
0.07432
0.01962
0.01727
0.01552
0.01540
0.07194
0.07181
0.01993
0.01988
0.01647
0.01685
0.07103
0.07139
0.02036
0.01872
0.01537
0.01738
0.08487
0.06842
0.02710
0.02058
0.00475
0.03358
0.06928
0.06871
0.02160
0.02108
0.01736
0.01774
0.09286
0.13121
0.06253
0.02596
0.05472
0.02597
0.08285
0.07796
0.01651
0.01778
0.00962
0.01802
0.14221
0.22950
0.09442
0.02541
0.09491
0.02548
0.07814
0.07634
0.02033
0.01583
0.01033
0.01900
0.07239
0.07188
0.01938
0.02031
0.01682
0.01650
0.06798
0.06774
0.02161
0.02139
0.01836
0.01907
0.07180
0.07185
0.02031
0.02060
0.01737
0.01717
0.07185
0.07191
0.02021
0.02039
0.01729
0.01708
0.07222
0.07222
0.02043
0.02029
0.01716
0.01728
0.07210
0.07203
0.02033
0.02042
0.01720
0.01712
0.07197
0.07199
0.02057
0.02040
0.01720
0.01740
0.07170
0.07164
0.02059
0.02064
0.01750
0.01734
0.07191
0.07195
0.02056
0.02049
0.01730
0.01740
0.07209
0.07198
0.02025
0.02076
0.01754
0.01700
0.07230
0.07239
0.02008
0.02026
0.01724
0.01694
0.07088
0.07051
0.02018
0.01985
0.01662
0.01745
0.07168
0.07175
0.02004
0.02049
0.01739
0.01694
0.07210
0.07277
0.01931
0.01936
0.01645
0.01579
0.07148
0.07163
0.02018
0.02059
0.01742
0.01703
0.07016
0.06936
0.01809
0.02318
0.01840
0.01535
0.07213
0.07216
0.02031
0.02026
0.01702
0.01707
0.07153
0.07162
0.02022
0.01999
0.01700
0.01688
0.07205
0.07209
0.02015
0.02034
0.01727
0.01702
0.07191
0.07185
0.01987
0.02043
0.01712
0.01666
0.07167
0.07175
0.02043
0.02061
0.01736
0.01728
0.06973
0.06907
0.02088
0.02041
0.01690
0.01855
0.07115
0.07132
0.02003
0.01984
0.01678
0.01670
0.07423
0.07721
0.01882
0.01752
0.01660
0.01293
0.07365
0.07333
0.01577
0.02361
0.01960
0.01303
0.07198
0.07206
0.02051
0.02029
0.01706
0.01731
0.07196
0.07208
0.02047
0.01958
0.01635
0.01728
0.07166
0.07170
0.01950
0.01977
0.01639
0.01654
0.07222
0.07224
0.02034
0.02029
0.01718
0.01720
0.07191
0.07194
0.02055
0.02043
0.01722
0.01739
0.07154
0.07137
0.02072
0.02062
0.01749
0.01750
0.07191
0.07197
0.02056
0.02044
0.01724
0.01740
0.07216
0.07208
0.02014
0.02076
0.01754
0.01682
0.07100
0.07115
0.02021
0.02034
0.01725
0.01677
0.07235
0.07244
0.01970
0.02050
0.01743
0.01667
0.08222
0.07805
0.02497
0.01992
0.01311
0.02505
0.10668
0.07809
0.07149
0.02579
0.06628
0.02594
0.07806
0.07461
0.01472
0.02080
0.01436
0.01489
0.14435
0.08174
0.08505
0.02477
0.10402
0.02618
0.07159
0.07044
0.02166
0.01897
0.01485
0.01881
0.07069
0.07044
0.02065
0.01885
0.01537
0.01825
0.06945
0.06985
0.02206
0.01847
0.01541
0.01790
0.07289
0.07211
0.01906
0.01906
0.01566
0.01622
0.07064
0.07067
0.01965
0.01995
0.01720
0.01642
0.07262
0.07264
0.02011
0.02024
0.01695
0.01676
0.07136
0.07111
0.02101
0.02000
0.01685
0.01793
0.07160
0.07145
0.02111
0.01960
0.01658
0.01796
0.06994
0.06910
-0.00797
-0.00740
0.07307
-0.00432
-0.00637
0.06702
-0.00878
-0.00378
0.07398
-0.00338
-0.00901
-0.00385
-0.00703
0.07092
0.07117
-0.00569
-0.00587
0.07088
-0.00599
-0.00591
0.07125
-0.00556
-0.00580
0.07073
-0.00597
-0.00561
-0.00607
-0.00566
0.07067
0.07071
-0.00610
-0.00609
0.07068
-0.00625
-0.00608
0.07046
0.07071
-0.00614
-0.00618
-0.00665
-0.00615
-0.00596
-0.00593
0.07102
0.07046
-0.00647
-0.00595
0.07066
0.07096
-0.00589
-0.00606
0.07039
-0.00625
-0.00612
-0.00641
-0.00585
-0.00579
-0.00608
0.07106
0.07070
-0.00625
-0.00584
0.07120
-0.00556
-0.00562
0.07136
-0.00550
-0.00591
0.07058
-0.00600
-0.00547
-0.00637
-0.00570
0.06906
0.07232
-0.00555
-0.00772
0.07040
-0.00676
-0.00758
0.06834
-0.00733
-0.00358
0.07123
-0.00639
-0.00893
-0.00578
-0.00565
0.06404
0.10549
0.00119
-0.01650
0.05511
-0.00643
-0.00623
0.06828
0.00079
-0.00868
0.10505
-0.00291
-0.02001
-0.04348
-0.04262
0.10266
0.05790
-0.03949
-0.01478
0.09344
0.06064
-0.02741
-0.00802
-0.03224
-0.02572
0.05976
-0.00069
-0.00507
-0.00349
-0.00669
0.07104
0.07102
-0.00581
-0.00571
0.07108
-0.00575
-0.00582
0.07103
-0.00583
-0.00572
0.07101
-0.00583
-0.00573
-0.00579
-0.00576
0.07107
0.07100
-0.00574
-0.00582
0.07107
0.07103
-0.00573
-0.00587
-0.00568
-0.00570
0.07129
-0.00553
-0.00587
-0.00553
-0.00581
0.07071
0.06993
-0.00674
-0.00601
0.07108
-0.00573
-0.00608
0.07121
-0.00555
-0.00668
0.07013
-0.00632
-0.00562
-0.00673
-0.00598
0.07007
0.07112
-0.00599
-0.00664
0.07095
-0.00584
-0.00643
0.07024
-0.00668
-0.00598
0.07049
-0.00590
-0.00538
-0.00647
-0.00661
0.05506
0.05550
0.07627
0.07572
0.05598
0.05566
0.07676
0.07710
-0.01453
-0.01561
0.04869
-0.01452
-0.01550
0.04907
-0.01612
0.04915
-0.01616
0.04881
0.05676
0.05521
0.07610
0.07814
0.05548
0.05632
0.07708
0.07643
-0.01587
-0.01757
0.04976
-0.01627
-0.01841
0.04805
-0.01690
0.04894
-0.01745
0.04982
0.05188
0.05277
0.07748
0.07882
0.05296
0.07070
0.07442
0.06423
-0.01707
-0.01565
0.04863
-0.00378
-0.01935
0.03434
-0.01353
0.04911
-0.02811
0.03926
0.06195
0.04743
0.07049
0.08436
0.08385
0.05744
0.06161
0.08596
0.00719
-0.00931
0.04266
-0.02660
-0.01756
0.05317
-0.05526
0.00260
-0.02203
0.05439
0.05794
0.05382
0.07531
0.08052
0.05445
0.05782
0.07779
0.07470
-0.01552
-0.01727
0.05029
-0.01494
-0.01821
0.04467
-0.01641
0.04836
-0.01590
0.05251
0.05606
0.05611
0.07700
0.07700
0.05595
0.05603
0.07694
0.07697
-0.01481
-0.01612
0.04944
-0.01629
0.04914
-0.01459
-0.01592
0.04948
-0.01606
0.04940
0.05649
0.05622
0.07710
0.07746
0.05620
0.05644
0.07733
0.07717
-0.01470
-0.01612
0.04976
-0.01470
-0.01613
0.04959
-0.01606
0.04949
-0.01607
0.04979
0.05610
0.05648
0.07746
0.07695
0.05643
0.05611
0.07712
0.07732
-0.01455
-0.01596
0.04949
-0.01443
-0.01585
0.04975
-0.01592
0.04979
-0.01579
0.04936
0.05593
0.05648
0.07736
0.07684
0.05638
0.05590
0.07690
0.07744
-0.01501
-0.01627
0.04939
-0.01658
0.04952
-0.01466
-0.01596
0.04987
-0.01618
0.04925
0.05593
0.05569
0.07647
0.07685
0.05536
0.05600
0.07711
0.07651
-0.01494
-0.01632
0.04950
-0.01454
-0.01598
0.04914
-0.01643
0.04841
-0.01594
0.04932
0.05420
0.05548
0.07667
0.07580
0.05596
0.05361
0.07295
0.07485
-0.01402
-0.01598
0.04718
-0.01427
0.04940
-0.01384
-0.01600
0.04860
-0.01382
0.04756
0.05619
0.05632
0.07714
0.07700
0.05630
0.05618
0.07719
0.07730
-0.01479
-0.01622
0.04961
-0.01614
0.04958
-0.01484
-0.01629
0.04973
-0.01619
0.04944
0.05621
0.05591
0.07679
0.07722
0.05579
0.05628
0.07721
0.07681
-0.01468
-0.01620
0.04945
-0.01456
-0.01606
0.04930
-0.01597
0.04908
-0.01588
0.04964
0.05541
0.05652
0.07700
0.07592
0.05610
0.05484
0.07585
0.07762
-0.01532
-0.01646
0.04904
-0.01549
-0.01654
0.05067
-0.01680
0.04918
-0.01775
0.04688
0.05406
0.05700
0.07792
0.07506
0.05919
0.05195
0.07219
0.07994
-0.01588
-0.01706
0.04782
-0.01750
0.05118
-0.01362
-0.01569
0.05019
-0.01420
0.04553
0.05644
0.05611
0.07688
0.07734
0.05612
0.05640
0.07735
0.07715
-0.01481
-0.01624
0.04979
-0.01616
0.04936
-0.01482
-0.01624
0.04957
-0.01617
0.04971
0.05618
0.05618
0.07716
0.07727
0.05582
0.05564
0.07627
0.07666
-0.01526
-0.01667
0.04934
-0.01655
0.04928
-0.01543
-0.01683
0.04948
-0.01671
0.04921
0.05647
0.05613
0.07699
0.07747
0.05614
0.05641
0.07730
0.07712
-0.01462
-0.01604
0.04974
-0.01599
0.04942
-0.01467
-0.01610
0.04951
-0.01603
0.04978
0.05606
0.05656
0.07752
0.07685
0.05645
0.05604
0.07710
0.07736
-0.01462
-0.01605
0.04949
-0.01447
-0.01590
0.04985
-0.01598
0.04980
-0.01582
0.04924
0.05542
0.05650
0.07742
0.07650
0.05639
0.05542
0.07620
0.07747
-0.01450
-0.01586
0.04865
-0.01440
-0.01575
0.04989
-0.01596
0.04956
-0.01586
0.04892
0.05039
0.05465
0.07869
0.07827
0.05708
0.07264
0.07902
0.06688
-0.02144
-0.01671
0.05023
-0.01920
0.05250
0.00201
-0.01773
0.03428
-0.03628
0.02289
0.05426
0.04628
0.07433
0.07831
0.07795
0.05779
0.06901
0.08015
0.00974
-0.01105
0.03544
-0.01993
-0.01358
0.04819
-0.04455
0.01136
-0.01754
0.05259
0.05592
0.05603
0.07686
0.07759
0.05592
0.05627
0.07653
0.07661
-0.01580
-0.01743
0.04883
-0.01677
0.04947
-0.01669
-0.01949
0.04794
-0.01758
0.05061
-0.09475
0.08616
0.18660
-0.16231
0.16621
0.13789
-0.12883
-0.15768
-0.11853
-0.08575
0.64631
-0.02551
0.05259
0.05898
0.08055
0.07363
0.05784
0.05366
0.07428
0.07832
-0.01445
-0.01702
0.04447
-0.01569
0.05196
-0.01617
-0.01809
0.05098
-0.01724
0.04754
0.05440
0.05492
0.07507
0.07415
0.05472
0.05479
0.07605
0.07602
-0.01369
-0.01479
0.04767
-0.01569
0.04786
-0.01439
-0.01529
0.04799
-0.01625
0.04813
0.05625
0.05628
0.07722
0.07718
0.05631
0.05626
0.07721
0.07723
-0.01451
-0.01591
0.04956
-0.01592
0.04963
-0.01452
-0.01592
0.04959
-0.01592
0.04958
0.05672
0.05602
0.07711
0.07771
0.05602
0.05685
0.07766
0.07666
-0.01490
-0.01623
0.04999
-0.01634
0.04954
-0.01494
-0.01624
0.04915
-0.01639
0.05027
0.05675
0.05614
0.07720
0.07773
0.05621
0.05693
0.07775
0.07690
-0.01512
-0.01638
0.05002
-0.01665
0.04969
-0.01516
-0.01640
0.04933
-0.01670
0.05032
0.05499
0.05583
0.07708
0.07612
0.05570
0.05525
0.07611
0.07656
-0.01488
-0.01646
0.04816
-0.01621
0.04936
-0.01407
-0.01556
0.04910
-0.01545
0.04874
-0.01636
-0.01912
-0.01610
-0.01870
0.08449
0.08383
-0.01947
-0.01837
0.08666
-0.01630
-0.01401
0.08233
-0.01852
-0.01999
0.09093
-0.01742
-0.01723
-0.01748
-0.01738
0.08525
0.08560
-0.01706
-0.01735
0.08538
-0.01737
-0.01719
0.08581
-0.01708
-0.01710
0.08521
-0.01787
-0.01754
-0.01840
-0.01744
0.08531
0.08491
-0.01733
-0.01746
0.08539
-0.01756
-0.01752
-0.01727
-0.01754
0.08457
0.08524
-0.01777
-0.01807
-0.01718
-0.01744
0.08583
0.08504
-0.01754
-0.01747
-0.01738
-0.01747
0.08516
0.08562
-0.01746
-0.01735
0.08375
-0.01708
-0.01781
-0.01701
-0.01727
0.08553
0.08524
-0.01795
-0.01706
0.08571
-0.01736
-0.01729
0.08585
-0.01713
-0.01693
0.08502
-0.01810
-0.01749
-0.01848
-0.01948
0.08434
0.08675
-0.01764
-0.01881
0.08503
-0.01840
-0.01385
0.08469
-0.01650
-0.02051
0.08668
-0.01543
-0.01346
0.01804
-0.07033
0.08170
0.03835
-0.01295
-0.01875
0.08202
-0.01471
-0.02075
0.08845
0.02263
-0.07361
0.03160
0.03480
-0.10482
-0.01802
-0.02103
-0.00277
0.09153
0.02083
-0.08300
-0.01643
-0.01654
0.03268
0.08467
-0.01982
-0.01630
0.08303
-0.01723
-0.01730
-0.01724
-0.01713
0.08561
0.08554
-0.01733
-0.01731
0.08568
-0.01733
-0.01717
0.08557
-0.01721
-0.01714
0.08549
-0.01712
-0.01714
-0.01698
-0.01735
0.08551
0.08557
-0.01716
-0.01713
-0.01699
-0.01744
0.08552
0.08563
-0.01734
-0.01745
0.08608
-0.01733
-0.01799
-0.01699
-0.01716
0.08553
0.08258
-0.01755
-0.01756
0.08588
-0.01828
-0.01791
0.08600
-0.01757
-0.01691
0.08471
-0.01723
-0.01768
-0.01718
-0.01798
0.08457
0.08595
-0.01842
-0.01747
0.08466
-0.01778
-0.01742
0.08443
-0.01801
-0.01671
0.08502
0.04777
0.04769
0.04830
0.04736
0.04804
0.04845
0.04853
0.04755
0.04597
0.09247
-0.00418
-0.02013
0.05269
0.05147
0.04267
0.04818
0.04827
0.04843
0.04854
0.04836
0.04828
0.04804
0.04841
0.04867
0.04678
0.04884
0.04704
0.04811
0.04800
0.04852
0.04782
0.04811
0.04792
0.04842
0.04810
0.04840
0.04493
0.05051
0.04860
0.04814
0.04821
0.04740
0.04854
0.04829
0.04829
0.04782
0.04853
0.04869
0.10160
-0.01383
-0.02177
0.05054
0.04664
0.04632
0.04670
0.04874
0.04677
0.04906
0.04768
0.04793
-0.07444
-0.17848
0.38659
-0.07821
0.16128
-0.14653
0.15872
0.00651
0.02335
-0.01310
-0.04980
-0.21130
0.19640
0.09703
-0.17051
0.10335
0.08054
-0.06686
-0.01204
0.00580
0.03449
-0.02001
-0.18779
-0.10141
0.10398
-0.15703
0.22520
0.19019
-0.07465
0.01486
-0.07942
0.10244
-0.07533
-0.22105
0.02643
-0.08112
-0.15581
0.01323
0.14800
0.12121
0.01409
-0.15591
-0.11344
-0.19397
-0.10337
0.33273
-0.16079
0.10096
-0.02036
-0.04181
-0.11700
0.08923
-0.00474
-0.09417
-0.04257
-0.14974
-0.15262
-0.01637
-0.15913
-0.03028
0.05406
-0.16249
-0.10115
-0.07847
-0.13269
-0.02369
-0.16312
0.03214
0.10000
