# vtk DataFile Version 3.0
Point representing Sub_cellular elem model
ASCII

DATASET UNSTRUCTURED_GRID
POINTS 773 float
0.01326 1.71279 0.49883 
0.00613 1.72370 -1.65747 
1.75131 1.05888 -0.59134 
1.75274 -1.09275 -0.59303 
0.00888 -1.75774 -1.66312 
0.01866 -1.75047 0.49214 
1.08667 -0.01685 1.15929 
-1.05626 -0.01996 1.17768 
1.08225 -0.01523 -2.33090 
-1.07060 -0.01631 -2.32396 
-1.72655 1.05474 -0.57387 
-1.72586 -1.09283 -0.58006 
0.00928 2.02936 -0.57855 
1.03561 1.63723 0.04901 
0.64420 0.99960 1.08569 
-0.61556 0.99879 1.09961 
-1.01051 1.63446 0.06125 
1.03346 1.64319 -1.22026 
0.63944 1.01106 -2.24681 
-0.62901 1.01002 -2.24209 
-1.01706 1.64019 -1.21050 
2.06430 -0.01696 -0.59490 
1.67062 0.61444 0.43248 
1.66883 0.61894 -1.61789 
1.03633 -1.67670 -1.22426 
1.03860 -1.67192 0.04632 
1.67037 -0.64998 0.43270 
1.66973 -0.65060 -1.61915 
0.01347 -2.06616 -0.58551 
0.64091 -1.04221 -2.24941 
-0.62777 -1.04274 -2.24575 
-1.01504 -1.67691 -1.21771 
0.64285 -1.03241 1.08953 
-0.61753 -1.04564 1.08341 
-1.00747 -1.67450 0.05127 
0.01440 0.59725 1.93344 
-1.63932 0.61222 0.45312 
-1.63985 -0.65123 0.44664 
0.00478 -0.01539 -2.63831 
-1.65182 0.61637 -1.60412 
-1.65148 -0.65154 -1.60716 
-2.03678 -0.01868 -0.57678 
0.01137 1.94496 -0.00657 
0.53434 1.74465 0.31343 
0.33632 1.41962 0.83999 
-0.30782 1.41951 0.84534 
-0.50880 1.74355 0.32019 
0.00747 1.95137 -1.15108 
0.52988 1.75392 -1.47820 
0.32887 1.43190 -2.00222 
-0.31799 1.43117 -1.99958 
-0.51629 1.75239 -1.47343 
1.45725 1.39865 -0.26528 
1.45641 1.40114 -0.91233 
1.98251 0.55450 -0.59374 
1.78196 0.87606 -0.06900 
1.78087 0.87895 -1.11526 
1.98314 -0.58836 -0.59451 
1.45871 -1.43469 -0.91512 
1.45924 -1.43304 -0.26740 
1.78258 -0.91082 -0.06982 
1.78219 -0.91175 -1.11690 
0.53288 -1.78762 -1.48326 
0.01092 -1.98699 -1.15765 
0.33110 -1.46424 -2.00641 
-0.31594 -1.46447 -2.00452 
-0.51370 -1.78783 -1.48006 
0.53887 -1.78027 0.30914 
0.01630 -1.98224 -0.01357 
0.34076 -1.45588 0.83674 
-0.30307 -1.45999 0.83645 
-0.50401 -1.78303 0.31101 
0.90912 0.50498 1.19039 
1.42876 0.30426 0.85462 
1.42851 -0.33963 0.85512 
0.90841 -0.54092 1.19171 
0.57923 -0.01970 1.42994 
-0.88000 0.50243 1.21156 
-0.88678 -0.54620 1.19685 
-0.55172 -0.02777 1.44337 
-1.39741 0.30248 0.87618 
-1.39912 -0.34106 0.87066 
0.90029 0.50844 -2.35960 
1.42532 0.30833 -2.03867 
1.42575 -0.33917 -2.03933 
0.90098 -0.53900 -2.36078 
0.57643 -0.01520 -2.55896 
-0.88960 0.50735 -2.35350 
-0.88906 -0.53980 -2.35546 
-0.56640 -0.01577 -2.55559 
-1.41168 0.30665 -2.02832 
-1.41146 -0.34039 -2.02972 
-1.43210 1.39467 -0.24950 
-1.43597 1.39716 -0.89808 
-1.75299 0.87252 -0.04989 
-1.75978 0.87536 -1.09893 
-1.95589 0.55118 -0.57501 
-1.43469 -1.43474 -0.90519 
-1.43056 -1.43388 -0.25799 
-1.75259 -0.91138 -0.05626 
-1.75934 -0.91206 -1.10362 
-1.95569 -0.58880 -0.57849 
0.56563 1.92753 -0.27617 
-0.54435 1.92574 -0.26990 
0.56409 1.93088 -0.88782 
-0.54701 1.92901 -0.88217 
0.91012 1.36856 0.62161 
1.05908 1.74222 -0.58541 
1.40413 1.18388 0.31077 
0.01354 1.02699 1.19752 
1.21532 0.87787 0.80551 
0.31395 0.52683 1.42245 
-0.88174 1.36722 0.63499 
-0.29186 0.52282 1.43645 
-1.18504 0.87627 0.82527 
-1.03844 1.73884 -0.57434 
-1.37525 1.18100 0.32841 
0.90640 1.37884 -1.79226 
1.40218 1.19011 -1.48949 
0.00481 1.03519 -2.34607 
1.21221 0.88517 -1.98359 
0.31023 0.54126 -2.53695 
-0.89353 1.37679 -1.78460 
-0.30084 0.54089 -2.53499 
-1.19927 0.88318 -1.97410 
-1.38580 1.18700 -1.47708 
1.96241 0.28759 -0.03852 
1.96146 0.28951 -1.15016 
1.96248 -0.32279 -0.03870 
1.96187 -0.32209 -1.15069 
1.77268 -0.01799 0.45508 
1.77116 -0.01575 -1.64368 
1.06228 -1.77676 -0.58919 
1.40406 -1.22240 -1.49210 
0.56779 -1.96597 -0.89323 
0.90859 -1.41097 -1.79575 
1.40499 -1.21859 0.31019 
0.56983 -1.96321 -0.28128 
0.91201 -1.40280 0.62129 
1.21482 -0.91286 0.80688 
1.21349 -0.91636 -1.98559 
-0.54372 -1.96626 -0.88995 
-0.54026 -1.96424 -0.27845 
0.00626 -1.06686 -2.34921 
0.31096 -0.57199 -2.53841 
-0.89192 -1.41143 -1.79016 
-0.30015 -0.57228 -2.53674 
-1.19846 -0.91717 -1.97787 
-1.03581 -1.77736 -0.58291 
-1.38482 -1.22280 -1.48260 
0.01781 -1.06623 1.19231 
0.30137 -0.54993 1.43230 
-0.87962 -1.40939 0.62285 
-0.30450 -0.58289 1.40916 
-1.18703 -0.91818 0.81295 
-1.37448 -1.22149 0.31838 
-1.74111 -0.01893 0.47418 
-1.93180 0.28552 -0.01900 
-1.93180 -0.32351 -0.02133 
-1.75341 -0.01749 -1.63008 
-1.93919 0.28699 -1.13334 
-1.93910 -0.32332 -1.13499 
0.01236 1.84516 0.25725 
0.27301 1.74525 0.41686 
0.17451 1.58315 0.67912 
-0.14672 1.58303 0.68149 
-0.24701 1.74481 0.42031 
0.00675 1.85418 -1.41544 
0.26718 1.75564 -1.57844 
0.16694 1.59522 -1.83976 
-0.15550 1.59479 -1.83840 
-0.25443 1.75488 -1.57613 
1.62158 1.23886 -0.42893 
1.62118 1.23998 -0.75142 
1.88347 0.81796 -0.59264 
1.78359 0.97817 -0.33092 
1.78299 0.97974 -0.85258 
1.88448 -0.85179 -0.59385 
1.62305 -1.27366 -0.75363 
1.62326 -1.27303 -0.43085 
1.78467 -1.01248 -0.33222 
1.78442 -1.01311 -0.85428 
0.27009 -1.78949 -1.58387 
0.00983 -1.88902 -1.42161 
0.16947 -1.62836 -1.84472 
-0.15307 -1.62845 -1.84376 
-0.25171 -1.78962 -1.58229 
0.27815 -1.78182 0.41137 
0.01762 -1.88260 0.25035 
0.17967 -1.62033 0.67371 
-0.14143 -1.62178 0.67405 
-0.24172 -1.78344 0.41230 
1.01411 0.24218 1.18887 
1.26926 0.14220 1.02147 
1.26996 -0.17636 1.02121 
1.01673 -0.27654 1.18766 
0.84586 -0.01711 1.30398 
-0.98271 0.23923 1.21072 
-0.98703 -0.28030 1.20234 
-0.81620 -0.02160 1.32040 
-1.23796 0.14020 1.04258 
-1.23966 -0.17865 1.03875 
1.00192 0.24586 -2.36213 
1.26365 0.14609 -2.20210 
1.26385 -0.17667 -2.20244 
1.00226 -0.27632 -2.36270 
0.84043 -0.01519 -2.46145 
-0.99084 0.24478 -2.35556 
-0.99060 -0.27725 -2.35656 
-0.82975 -0.01602 -2.45632 
-1.25117 0.14473 -2.19350 
-1.25105 -0.17787 -2.19416 
-1.59651 1.23470 -0.41212 
-1.59852 1.23583 -0.73534 
-1.75659 0.97418 -0.31261 
-1.75997 0.97577 -0.83549 
-1.85771 0.81406 -0.57431 
-1.59758 -1.27368 -0.74210 
-1.59547 -1.27333 -0.41945 
-1.75598 -1.01274 -0.31886 
-1.75942 -1.01318 -0.84095 
-1.85730 -0.85194 -0.57929 
0.01031 2.00723 -0.28798 
0.00832 2.01056 -0.86926 
0.29394 2.00337 -0.43163 
-0.27420 2.00241 -0.42848 
0.29306 2.00507 -0.72877 
-0.27536 2.00408 -0.72579 
0.79122 1.70849 0.18963 
1.25998 1.53294 -0.10428 
0.81466 1.80444 -0.11332 
0.99099 1.51834 0.34578 
1.05433 1.71459 -0.26352 
1.23081 1.42871 0.19518 
0.49554 1.22423 0.97619 
0.78490 0.76119 1.15527 
0.79240 1.19474 0.86996 
0.33696 1.02231 1.16565 
0.94073 0.95792 0.95906 
0.47977 0.77851 1.26799 
-0.46683 1.22400 0.98542 
-0.75594 0.75906 1.17420 
-0.30925 1.02195 1.17351 
-0.76338 1.19396 0.88373 
-0.45306 0.77671 1.28188 
-0.91110 0.95663 0.97694 
-0.76599 1.70657 0.19936 
-1.23487 1.52944 -0.09002 
-0.79155 1.80204 -0.10401 
-0.96400 1.51624 0.35863 
-1.03142 1.71138 -0.25188 
-1.20371 1.42579 0.21026 
0.78801 1.71622 -1.35766 
1.25860 1.53707 -1.07027 
0.81268 1.80928 -1.05434 
1.05321 1.71768 -0.90743 
0.98799 1.52677 -1.51715 
1.22872 1.43514 -1.37014 
0.48806 1.23529 -2.13946 
0.77829 0.76622 -2.32094 
0.78807 1.20602 -2.03793 
0.32666 1.03012 -2.32126 
0.93654 0.96620 -2.13079 
0.47503 0.79023 -2.41400 
-0.47750 1.23435 -2.13569 
-0.76782 0.76514 -2.31545 
-0.31684 1.02959 -2.31891 
-0.77659 1.20450 -2.03168 
-0.46529 0.78957 -2.41075 
-0.92507 0.96466 -2.12367 
-0.77320 1.71393 -1.35037 
-1.24029 1.53349 -1.05815 
-0.79601 1.80671 -1.04643 
-1.03476 1.71438 -0.89696 
-0.97345 1.52420 -1.50830 
-1.21242 1.43198 -1.35890 
2.04362 0.27332 -0.59451 
2.04391 -0.30722 -0.59489 
2.03853 0.13103 -0.31025 
2.03805 0.13189 -0.87918 
2.03862 -0.16566 -0.31040 
2.03824 -0.16510 -0.87941 
1.74404 0.75359 0.18814 
1.56427 0.46309 0.65673 
1.55296 0.90997 0.38953 
1.46112 0.76137 0.62929 
1.83870 0.45143 0.21071 
1.74666 0.30297 0.45020 
1.74258 0.75750 -1.37308 
1.56194 0.46764 -1.84206 
1.55110 0.91548 -1.57186 
1.45877 0.76730 -1.81175 
1.83730 0.45455 -1.39815 
1.74488 0.30629 -1.63789 
1.26123 -1.57056 -1.07366 
0.79100 -1.74980 -1.36222 
1.05631 -1.75179 -0.91143 
1.23111 -1.46797 -1.37345 
0.81599 -1.84355 -1.05904 
0.99054 -1.55957 -1.52096 
1.26239 -1.56748 -0.10663 
0.79495 -1.74348 0.18632 
1.05751 -1.74931 -0.26688 
1.23273 -1.46325 0.19367 
0.81843 -1.83956 -0.11726 
0.99357 -1.55285 0.34408 
1.74418 -0.78878 0.18785 
1.56383 -0.49875 0.65728 
1.83862 -0.48696 0.21066 
1.74639 -0.33882 0.45042 
1.55305 -0.94508 0.38953 
1.46074 -0.79670 0.62996 
1.74371 -0.78971 -1.37457 
1.56260 -0.49883 -1.84304 
1.83796 -0.48660 -1.39903 
1.74533 -0.33783 -1.63852 
1.55248 -0.94738 -1.57378 
1.45988 -0.79867 -1.81339 
0.01214 -2.04686 -0.87609 
0.01488 -2.04434 -0.29500 
0.29707 -2.04101 -0.73494 
0.29827 -2.03965 -0.43776 
-0.27153 -2.04124 -0.73333 
-0.26997 -2.04007 -0.43625 
0.48992 -1.26696 -2.14284 
0.77936 -0.79701 -2.32280 
0.78990 -1.23759 -2.04099 
0.93794 -0.99731 -2.13310 
0.32814 -1.06145 -2.32412 
0.47613 -0.82111 -2.41607 
-0.47586 -1.26733 -2.14005 
-0.76695 -0.79768 -2.31830 
-0.31546 -1.06173 -2.32232 
-0.77515 -1.23813 -2.03630 
-0.46429 -0.82154 -2.41344 
-0.92402 -0.99801 -2.12747 
-0.77085 -1.75004 -1.35736 
-1.23863 -1.57070 -1.06541 
-0.79335 -1.84380 -1.05409 
-0.97166 -1.55990 -1.51473 
-1.03245 -1.75205 -0.90488 
-1.21097 -1.46823 -1.36538 
0.49791 -1.25872 0.97634 
0.78295 -0.79658 1.15818 
0.79313 -1.22852 0.87148 
0.94001 -0.99253 0.96128 
0.33823 -1.05623 1.16690 
0.47445 -0.80882 1.27465 
-0.46417 -1.26738 0.97356 
-0.76198 -0.80592 1.15646 
-0.30750 -1.06718 1.16104 
-0.76278 -1.23792 0.86995 
-0.45898 -0.82863 1.26170 
-0.91370 -1.00099 0.96191 
-0.76202 -1.74655 0.18946 
-1.23267 -1.56916 -0.09945 
-0.78782 -1.84135 -0.11332 
-1.02852 -1.75066 -0.26111 
-0.96115 -1.55718 0.34770 
-1.20174 -1.46630 0.19992 
0.03238 -0.53890 1.68103 
-0.18992 -0.53994 1.93289 
0.45990 0.05157 1.67826 
0.43429 -0.47794 2.31237 
-0.42112 -0.25842 1.67078 
-0.52054 -0.10894 1.91314 
-1.53274 0.46132 0.67802 
-1.71359 0.75070 0.20802 
-1.43019 0.75932 0.64993 
-1.52263 0.90731 0.40916 
-1.71494 0.30140 0.47066 
[...]
CELL_DATA 2311
SCALARS Strain double 
LOOKUP_TABLE default 
-0.08543
-0.08931
-0.08886
-0.08593
-0.09117
-0.08713
-0.08827
-0.08715
-0.08788
-0.08786
-0.08712
-0.08860
-0.08770
-0.08847
-0.08766
-0.08824
-0.08872
-0.08733
-0.08783
-0.08715
-0.08763
-0.08736
-0.08770
-0.08730
-0.08801
-0.09170
-0.08519
-0.08574
-0.08906
-0.08922
-0.10154
-0.07495
-0.07214
-0.10214
-0.06729
-0.09879
-0.10187
-0.07276
-0.07920
-0.07205
-0.08719
-0.08763
-0.08746
-0.08727
-0.08762
-0.08758
-0.08741
-0.08757
-0.08738
-0.08768
-0.08798
-0.08921
-0.08682
-0.08596
-0.09000
-0.08822
-0.08848
-0.08745
-0.08753
-0.08891
-0.03252
-0.03279
0.06705
0.06865
0.06909
0.06729
-0.03443
-0.03367
0.06619
0.07173
0.07074
0.06526
-0.03462
-0.05231
0.08389
0.05672
0.07941
0.09689
-0.02706
-0.04500
0.04896
0.08370
0.09586
0.07155
-0.03738
-0.03634
0.06726
0.07362
0.07276
0.06591
-0.03514
-0.03521
0.06997
0.06966
0.06948
0.07004
-0.03364
-0.03364
0.06931
0.06935
0.06935
0.06941
-0.03431
-0.03425
0.06933
0.07003
0.06990
0.06929
-0.03507
-0.03532
0.06815
0.07130
0.07090
0.06832
-0.03381
-0.03394
0.06858
0.06893
0.06921
0.06847
-0.03514
-0.03487
0.06567
0.07177
0.07071
0.06607
-0.03452
-0.03450
0.07023
0.06923
0.06910
0.07034
-0.03476
-0.03453
0.07018
0.06945
0.06908
0.06989
-0.03556
-0.03727
0.07295
0.06521
0.06728
0.07512
-0.03395
-0.03401
0.07165
0.06508
0.06403
0.07264
-0.03409
-0.03411
0.06888
0.07026
0.07009
0.06910
-0.03314
-0.03276
0.06753
0.06885
0.06914
0.06706
-0.03396
-0.03387
0.06969
0.06951
0.06954
0.06972
-0.03380
-0.03383
0.06944
0.06948
0.06952
0.06941
-0.03502
-0.03506
0.06948
0.06963
0.06972
0.06936
-0.03184
-0.06120
0.09406
0.08268
0.04646
0.11417
-0.03345
-0.03963
0.06347
0.06882
0.07077
0.07313
-0.03470
-0.03476
0.06643
0.06976
0.06956
0.06648
0.02498
0.16522
0.09061
0.21797
0.07393
-0.03368
-0.03338
0.07124
0.06360
0.06364
0.07188
-0.03358
-0.03386
0.06580
0.06792
0.06682
0.06688
-0.03411
-0.03410
0.06968
0.06980
0.06980
0.06968
-0.03329
-0.03299
0.06888
0.06856
0.06872
0.06876
-0.03421
-0.03414
0.06943
0.06907
0.06905
0.06954
-0.03659
-0.03634
0.07099
0.06858
0.06874
0.07054
-0.06352
-0.04309
0.07642
0.07872
0.03316
0.03100
-0.06689
-0.04570
0.07613
0.08310
0.03616
0.03016
-0.06802
-0.04881
0.08467
0.07581
0.03254
0.04027
-0.06367
-0.04274
0.07434
0.08261
0.03559
0.02864
-0.06944
-0.04863
0.07861
0.08275
0.03679
0.03296
-0.06488
-0.04392
0.07981
0.07846
0.03259
0.03366
-0.06647
-0.04590
0.08015
0.07984
0.03444
0.03461
-0.06514
-0.04447
0.07966
0.07939
0.03372
0.03397
-0.06591
-0.04520
0.07941
0.08045
0.03461
0.03376
-0.06610
-0.04566
0.07875
0.08072
0.03531
0.03337
-0.06495
-0.04425
0.07976
0.07744
0.03179
0.03408
-0.06676
-0.04609
0.07971
0.08032
0.03468
0.03401
-0.06552
-0.04468
0.07974
0.07870
0.03302
0.03362
-0.06667
-0.04605
0.07780
0.08041
0.03521
0.03268
-0.06587
-0.04531
0.08036
0.07886
0.03345
0.03482
-0.06605
-0.04505
0.08047
0.07864
0.03302
0.03425
-0.06672
-0.04585
0.08057
0.07984
0.03394
0.03456
-0.06553
-0.04539
0.08115
0.07670
0.03180
0.03612
-0.06570
-0.04486
0.08102
0.07662
0.03158
0.03541
-0.06536
-0.04484
0.07876
0.08003
0.03458
0.03338
-0.06574
-0.04519
0.07931
0.08014
0.03461
0.03396
-0.06521
-0.04429
0.07891
0.07982
0.03388
0.03289
-0.06565
-0.04489
0.08007
0.07973
0.03412
0.03441
-0.06529
-0.04462
0.07964
0.07975
0.03409
0.03387
-0.06626
-0.04576
0.08001
0.07987
0.03439
0.03437
-0.07023
-0.04919
0.07882
0.08451
0.03767
0.03287
-0.06340
-0.04316
0.07891
0.07604
0.03073
0.03329
-0.06346
-0.04318
0.08509
0.07253
0.02645
0.03805
-0.06874
-0.05016
0.07662
0.08255
0.03766
0.03478
-0.06649
-0.04537
0.07569
0.08177
0.03539
0.02985
-0.06043
-0.04749
0.08713
0.06967
0.03299
0.04362
-0.06364
-0.04494
0.08258
0.07400
0.02996
0.03667
-0.06456
-0.04482
0.07557
0.08261
0.03651
0.03043
-0.05135
-0.04795
0.09027
0.05352
0.03008
0.05264
-0.02095
-0.27884
0.14127
0.14481
0.02539
0.02560
-0.06197
-0.04555
0.07629
0.08136
0.03603
0.03434
-0.05637
-0.03401
0.07316
0.06803
0.01861
0.02581
-0.03143
0.13982
0.13815
0.02614
0.02570
-0.06419
-0.04459
0.08095
0.07273
0.02936
0.03755
-0.06060
-0.04327
0.07028
0.07527
0.03468
0.02945
-0.06516
-0.04448
0.07973
0.07982
0.03400
0.03407
-0.06580
-0.04525
0.07972
0.08048
0.03477
0.03405
-0.06554
-0.04492
0.08045
0.07960
0.03383
0.03468
-0.06528
-0.04464
0.07971
0.08004
0.03429
0.03412
-0.06563
-0.04495
0.07996
0.08011
0.03447
0.03436
-0.06566
-0.04504
0.08011
0.07967
0.03408
0.03455
-0.06540
-0.04470
0.07982
0.07981
0.03413
0.03412
-0.06560
-0.04493
0.08007
0.07987
0.03425
0.03442
-0.06526
-0.04439
0.07955
0.07962
0.03381
0.03378
-0.06575
-0.04508
0.07987
0.07974
0.03413
0.03432
-0.06645
-0.04639
0.08239
0.07593
0.03134
0.03679
-0.06723
-0.04639
0.08204
0.07821
0.03270
0.03591
-0.06468
-0.04402
0.07524
0.08144
0.03478
0.02958
-0.06397
-0.04353
0.07811
0.07879
0.03304
0.03246
-0.06833
-0.04763
0.08166
0.07903
0.03362
0.03573
-0.06641
-0.04585
0.07998
0.07892
0.03355
0.03428
-0.06659
-0.04583
0.07994
0.07807
0.03232
0.03395
-0.06540
-0.04472
0.07800
0.07863
0.03245
0.03189
-0.06554
-0.04491
0.07874
0.07969
0.03381
0.03306
-0.06729
-0.04691
0.07906
0.08008
0.03481
0.03370
0.06932
0.06906
0.01989
0.02190
0.01836
0.01711
0.07074
0.07032
0.01762
0.02284
0.01940
0.01476
0.07200
0.07230
0.01876
0.02099
0.01807
0.01546
0.07008
0.07037
0.01960
0.02195
0.01910
0.01607
0.07611
0.07964
0.01601
0.01866
0.01895
0.00918
0.07273
0.07240
0.01829
0.02089
0.01744
0.01531
0.06731
0.06749
0.02063
0.02200
0.01912
0.01783
0.07909
0.07478
0.02778
0.01980
0.01229
0.02624
0.07781
0.07604
0.02111
0.01447
0.00985
0.01817
0.12439
-0.16817
0.08429
0.02561
0.07196
0.02518
0.08043
0.07762
0.01424
0.01900
0.01190
0.01496
0.12263
-0.03472
0.06147
0.02561
0.09351
0.02554
0.07328
0.07337
0.02274
0.01511
0.01128
0.02042
0.07472
0.07426
0.01835
0.01876
0.01515
0.01569
0.06710
0.06629
0.02340
0.02031
0.01625
0.02049
0.07186
0.07180
0.02097
0.02002
0.01681
0.01781
0.07260
0.07266
0.02023
0.01988
0.01677
0.01699
0.07185
0.07185
0.02035
0.02085
0.01764
0.01725
0.07184
0.07180
0.02022
0.02105
0.01784
0.01699
0.07204
0.07213
0.02039
0.02080
0.01763
0.01723
0.07277
0.07307
0.01998
0.01980
0.01669
0.01666
0.07234
0.07231
0.02041
0.02054
0.01732
0.01723
0.07169
0.07155
0.02103
0.02001
0.01676
0.01810
0.07090
0.07096
0.02188
0.01949
0.01649
0.01838
0.07141
0.07206
0.01942
0.01936
0.01625
0.01647
0.07139
0.07147
0.01978
0.02126
0.01814
0.01660
0.07228
0.07311
0.01933
0.01859
0.01597
0.01620
0.07102
0.07117
0.02030
0.02111
0.01809
0.01704
0.06925
0.06884
0.02039
0.02095
0.01693
0.01644
0.07291
0.07289
0.02029
0.01999
0.01668
0.01705
0.07323
0.07410
0.01974
0.01880
0.01618
0.01580
0.07221
0.07242
0.02069
0.01992
0.01693
0.01741
0.07110
0.07057
0.02119
0.01996
0.01653
0.01844
0.07226
0.07220
0.02048
0.02038
0.01709
0.01747
0.06610
0.06563
0.02335
0.02174
0.01819
0.02102
0.07064
0.07106
0.02299
0.01755
0.01502
0.01903
0.08100
0.08652
0.01741
0.01403
0.01705
0.00736
0.07720
0.07944
0.01293
0.02243
0.02112
0.00743
0.07178
0.07192
0.02090
0.02056
0.01738
0.01761
0.07190
0.07201
0.01892
0.02088
0.01789
0.01553
0.06917
0.06893
0.01993
0.02144
0.01807
0.01694
0.07204
0.07200
0.02074
0.02047
0.01737
0.01758
0.07227
0.07230
0.02047
0.02066
0.01744
0.01730
0.07200
0.07205
0.02010
0.02063
0.01739
0.01687
0.07209
0.07215
0.02046
0.02075
0.01758
0.01729
0.07189
0.07190
0.02042
0.02047
0.01733
0.01727
0.07231
0.07234
0.02004
0.01857
0.01542
0.01694
0.07172
0.07162
0.02055
0.02005
0.01686
0.01731
0.06767
0.08503
0.02049
0.02639
0.02992
0.00536
0.15886
0.17945
0.12484
0.02530
0.09155
0.02529
0.07125
0.07171
0.01945
0.01700
0.01363
0.01701
0.08091
-0.16557
0.04823
0.02514
0.06017
0.02508
0.06944
0.06815
0.01469
0.02172
0.01681
0.01393
0.06966
0.07037
0.01973
0.01874
0.01602
0.01557
0.06711
0.06825
0.02292
0.01729
0.01522
0.01906
0.07428
0.07393
0.01625
0.01973
0.01603
0.01358
0.07014
0.07071
0.01776
0.02145
0.01861
0.01410
0.07139
0.07151
0.02004
0.02080
0.01786
0.01686
0.07123
0.07125
0.01892
0.02170
0.01817
0.01590
0.07228
0.07262
0.01932
0.02008
0.01689
0.01604
0.06761
0.07033
-0.00704
-0.00931
0.07458
-0.00344
-0.00898
0.06653
-0.00804
-0.00177
0.07299
-0.00566
-0.01052
-0.00340
-0.00568
0.07123
0.07014
-0.00689
-0.00611
0.07104
-0.00537
-0.00531
0.07051
-0.00636
-0.00597
0.07171
-0.00526
-0.00617
-0.00492
-0.00632
0.07071
0.06972
-0.00739
-0.00642
0.07141
-0.00521
-0.00592
0.07140
0.06985
-0.00695
-0.00599
-0.00504
-0.00648
-0.00668
-0.00537
0.07187
0.06995
-0.00657
-0.00541
0.07164
0.07097
-0.00576
-0.00533
0.06899
-0.00753
-0.00510
-0.00732
-0.00510
-0.00577
-0.00673
0.07054
0.07135
-0.00538
-0.00595
0.07121
-0.00588
-0.00656
0.07083
-0.00582
-0.00546
0.07105
-0.00584
-0.00612
-0.00552
-0.00547
0.07048
0.07377
-0.00277
-0.00538
0.06719
-0.00978
-0.00689
0.06609
-0.01181
-0.00526
0.07430
-0.00219
-0.00735
-0.00368
-0.00959
0.06616
0.09505
-0.00960
-0.02056
0.05761
-0.00639
-0.00322
0.05963
-0.00650
-0.00165
0.10130
-0.01594
-0.03265
-0.03428
-0.03599
0.09004
0.06671
-0.02068
-0.00711
0.10136
0.05469
-0.03611
-0.00669
-0.02710
-0.03069
0.05869
-0.00789
-0.00162
-0.00401
-0.01086
0.07101
0.07116
-0.00585
-0.00582
0.07157
-0.00523
-0.00574
0.07091
-0.00594
-0.00532
0.07133
-0.00561
-0.00581
-0.00539
-0.00551
0.07129
0.07092
-0.00579
-0.00543
0.07102
0.07112
-0.00575
-0.00581
-0.00571
-0.00551
0.07106
-0.00589
-0.00597
-0.00565
-0.00555
0.07315
0.06759
-0.00821
-0.00395
0.06926
-0.00693
-0.00392
0.07248
-0.00561
-0.00938
0.07025
-0.00711
-0.00790
-0.00572
-0.00407
0.07123
0.06979
-0.00663
-0.00562
0.06962
-0.00700
-0.00572
0.07040
-0.00697
-0.00763
0.07093
-0.00623
-0.00710
-0.00543
-0.00596
0.05561
0.05362
0.07429
0.07619
0.05431
0.05565
0.07705
0.07546
-0.01343
-0.01454
0.04936
-0.01289
-0.01402
0.04726
-0.01510
0.04746
-0.01458
0.04857
0.05792
0.05225
0.07365
0.07986
0.05328
0.05718
0.07774
0.07384
-0.01467
-0.01646
0.05071
-0.01385
-0.01671
0.04378
-0.01562
0.04705
-0.01496
0.05123
0.05137
0.05938
0.08214
0.07635
0.05765
0.08150
0.08616
0.06747
-0.02624
-0.01986
0.05361
-0.00228
-0.01907
0.04064
-0.02328
0.05285
-0.04914
0.02098
0.05527
0.04560
0.07216
0.08048
0.06885
0.06044
0.07392
0.08041
0.01013
-0.00995
0.03322
-0.02166
-0.01511
0.04823
-0.03673
0.01042
-0.02100
0.05503
0.05929
0.05408
0.07552
0.08076
0.05352
0.05971
0.08021
0.07331
-0.01722
-0.01905
0.05223
-0.01702
-0.02025
0.04523
-0.01795
0.04768
-0.01737
0.05372
0.05652
0.05681
0.07766
0.07725
0.05680
0.05622
0.07729
0.07779
-0.01607
-0.01737
0.05008
-0.01757
0.04997
-0.01534
-0.01669
0.05018
-0.01679
0.04944
0.05604
0.05616
0.07704
0.07697
0.05613
0.05620
0.07714
0.07719
-0.01410
-0.01551
0.04936
-0.01420
-0.01558
0.04959
-0.01548
0.04939
-0.01560
0.04954
0.05673
0.05600
0.07696
0.07783
0.05620
0.05677
0.07758
0.07707
-0.01467
-0.01613
0.04999
-0.01495
-0.01640
0.04923
-0.01601
0.04954
-0.01629
0.05030
0.05779
0.05532
0.07603
0.07840
0.05484
0.05791
0.07930
0.07584
-0.01586
-0.01696
0.05149
-0.01759
0.04789
-0.01550
-0.01670
0.04876
-0.01709
0.05088
0.05552
0.05550
0.07670
0.07635
0.05515
0.05608
0.07747
0.07608
-0.01497
-0.01628
0.04916
-0.01397
-0.01534
0.04877
-0.01666
0.04859
-0.01551
0.04924
0.05788
0.05392
0.07435
0.07809
0.05179
0.05804
0.08020
0.07263
-0.01512
-0.01662
0.05215
-0.01657
0.04404
-0.01586
-0.01729
0.04772
-0.01721
0.04967
0.05584
0.05711
0.07792
0.07659
0.05701
0.05607
0.07708
0.07802
-0.01495
-0.01633
0.04927
-0.01631
0.05027
-0.01513
-0.01654
0.05054
-0.01644
0.04931
0.05597
0.05671
0.07799
0.07724
0.05687
0.05617
0.07677
0.07760
-0.01533
-0.01706
0.04875
-0.01499
-0.01658
0.04987
-0.01648
0.05058
-0.01622
0.04974
0.05365
0.05994
0.07958
0.07330
0.06006
0.05345
0.07564
0.08289
-0.01685
-0.01713
0.04804
-0.01596
-0.01615
0.05498
-0.01918
0.05209
-0.02032
0.04307
0.05271
0.05843
0.07890
0.07280
0.05879
0.05067
0.07246
0.08109
-0.01550
-0.01681
0.04701
-0.01695
0.05065
-0.01318
-0.01454
0.05245
-0.01562
0.04198
0.05698
0.05574
0.07640
0.07770
0.05584
0.05689
0.07797
0.07695
-0.01472
-0.01607
0.05047
-0.01609
0.04900
-0.01455
-0.01589
0.04927
-0.01595
0.05009
0.05585
0.05451
0.07586
0.07708
0.05362
0.05570
0.07639
0.07408
-0.01331
-0.01513
0.04891
-0.01417
0.04751
-0.01366
-0.01533
0.04749
-0.01475
0.04931
0.05631
0.05654
0.07745
0.07725
0.05646
0.05632
0.07720
0.07745
-0.01438
-0.01589
0.04956
-0.01568
0.04977
-0.01445
-0.01593
0.04990
-0.01578
0.04966
0.05628
0.05613
0.07713
0.07719
0.05627
0.05628
0.07726
0.07719
-0.01430
-0.01569
0.04968
-0.01440
-0.01575
0.04941
-0.01571
0.04963
-0.01583
0.04961
0.05653
0.05639
0.07737
0.07733
0.05602
0.05643
0.07742
0.07675
-0.01594
-0.01724
0.05000
-0.01525
-0.01660
0.04962
-0.01737
0.04946
-0.01664
0.04970
0.04498
0.06455
0.08674
0.06787
0.05949
0.09555
0.09073
0.06053
-0.03019
-0.01806
0.05297
-0.02562
0.05718
0.00363
-0.00984
0.04607
-0.07119
0.00148
0.04871
0.05394
0.08088
0.07505
0.06760
0.04421
0.05168
0.07194
-0.00406
-0.02256
0.02770
-0.01866
-0.01844
0.05032
-0.02658
0.03409
-0.01302
0.04385
0.05681
0.05279
0.07346
0.07766
0.05382
0.05597
0.07732
0.07499
-0.01509
-0.01645
0.05016
-0.01655
0.04716
-0.01520
-0.01666
0.04622
-0.01706
0.04851
0.08884
-0.07061
-0.05519
0.03301
0.05192
-0.02898
-0.11023
0.11920
-0.00003
-0.11710
-0.08462
0.14163
0.05047
0.05914
0.07920
0.07092
0.05749
0.05098
0.07183
0.07919
-0.01280
-0.01477
0.04362
-0.01402
0.05014
-0.01554
-0.01791
0.05203
-0.01629
0.04494
0.05552
0.05266
0.07138
0.07415
0.05386
0.05380
0.07535
0.07542
-0.01581
-0.01798
0.04894
-0.01657
0.04716
-0.01360
-0.01448
0.04709
-0.01526
0.04646
0.05661
0.05649
0.07741
0.07754
0.05645
0.05659
0.07751
0.07737
-0.01463
-0.01603
0.04994
-0.01602
0.04975
-0.01460
-0.01600
0.04980
-0.01599
0.04993
0.05570
0.05575
0.07681
0.07679
0.05544
0.05510
0.07590
0.07630
-0.01364
-0.01530
0.04891
-0.01473
0.04893
-0.01374
-0.01542
0.04903
-0.01482
0.04860
0.05611
0.05641
0.07725
0.07702
0.05610
0.05554
0.07649
0.07718
-0.01462
-0.01606
0.04947
-0.01595
0.04939
-0.01483
-0.01626
0.04993
-0.01617
0.04884
0.05547
0.05766
0.07903
0.07644
0.05737
0.05566
0.07637
0.07790
-0.01752
-0.01926
0.04847
-0.01856
0.05112
-0.01641
-0.01798
0.05058
-0.01762
0.04904
-0.01539
-0.01810
-0.01500
-0.02054
0.08232
0.08418
-0.01833
-0.02132
0.08948
-0.01844
-0.01244
0.08210
-0.01721
-0.02171
0.08942
-0.01656
-0.01846
-0.01609
-0.01787
0.08577
0.08407
-0.01785
-0.01672
0.08544
-0.01676
-0.01739
0.08530
-0.01767
-0.01773
0.08643
-0.01665
-0.01884
-0.01624
-0.01789
0.08582
0.08221
-0.01805
-0.01746
0.08617
-0.01762
-0.01847
-0.01665
-0.01767
0.08560
0.08476
-0.01830
-0.01798
-0.01696
-0.01714
0.08651
0.08453
-0.01863
-0.01759
-0.01799
-0.01697
0.08697
0.08583
-0.01677
-0.01612
0.08087
-0.01749
-0.01664
-0.01731
-0.01723
0.08467
0.08583
-0.01677
-0.01825
0.08564
-0.01722
-0.01689
0.08553
-0.01692
-0.01770
0.08557
-0.02096
-0.01477
-0.02284
-0.01750
0.08446
0.09336
-0.01559
-0.01791
0.08200
-0.01263
-0.01921
0.08124
-0.02190
-0.01737
0.08537
-0.02171
-0.01838
0.01886
-0.07621
0.09150
0.02445
-0.01849
-0.01795
0.08227
-0.01976
-0.02130
0.09375
0.03946
-0.09658
-0.01702
0.00818
-0.07339
-0.02022
-0.01702
0.04846
0.08764
0.02112
-0.08813
-0.01273
-0.01963
0.02747
0.07905
-0.02048
-0.01472
0.08084
-0.01667
-0.01742
-0.01681
-0.01725
0.08545
0.08566
-0.01752
-0.01724
0.08638
-0.01712
-0.01681
0.08542
-0.01694
-0.01721
0.08584
-0.01717
-0.01722
-0.01742
-0.01672
0.08587
0.08530
-0.01694
-0.01720
-0.01707
-0.01728
0.08566
0.08555
-0.01684
-0.01747
0.08528
-0.01864
-0.01917
-0.01777
-0.01528
0.08811
0.08063
-0.01847
-0.01563
0.08418
-0.01717
-0.02072
0.08764
-0.01572
-0.01931
0.08468
-0.01852
-0.01791
-0.01779
-0.01710
0.08578
0.08491
-0.01848
-0.01737
0.08366
-0.01665
-0.01941
0.08430
-0.01734
-0.01867
0.08582
0.04602
0.04845
0.04910
0.04690
0.04631
0.05061
0.05094
0.04220
0.05170
0.09646
-0.01071
-0.02553
0.05326
0.04815
0.04268
0.04812
0.04896
0.04806
0.04828
0.04842
0.04869
0.04930
0.04784
0.04757
0.04764
0.04848
0.04637
0.04797
0.04759
0.04930
0.04993
0.04687
0.04732
0.04867
0.04853
0.04817
0.04029
0.05543
0.05162
0.04820
0.04599
0.04885
0.04839
0.04866
0.04849
0.04838
0.04812
0.04827
0.09543
-0.01707
-0.01697
0.04567
0.04672
0.04646
0.04446
0.05029
0.04663
0.04748
0.04777
0.04896
-0.15311
-0.03814
0.08746
0.16484
0.00135
0.00852
-0.16973
-0.03101
-0.04257
0.01192
-0.01827
-0.02711
-0.09086
0.00366
-0.03844
-0.10621
0.03989
-0.05608
0.11532
-0.11574
0.21688
-0.07212
-0.11475
-0.05697
0.16263
0.15950
0.09386
0.10232
0.00610
-0.19640
0.11299
-0.12446
0.06552
-0.01818
0.18180
-0.09338
0.06211
-0.00570
-0.05677
-0.07019
-0.11295
-0.24052
-0.06616
0.20621
0.08882
0.04812
0.13888
0.09410
0.16034
0.02957
-0.01555
-0.00838
-0.06860
-0.07927
0.00614
0.06462
-0.03069
-0.00719
0.03370
-0.04193
0.02323
-0.14993
-0.08688
0.07370
-0.14348
0.06931
0.08257
-0.05625
-0.01040
0.12425
0.06618
0.03833
-0.00615
0.10376
0.02198
0.00690
0.01377
0.03683
-0.04555
0.02272
0.02115
0.08775
-0.02465
0.01575
-0.11696
-0.00131
-0.00264
-0.06077
-0.10579
-0.07407
0.27792
-0.10051
-0.11849
-0.02152
0.17364
0.00515
0.12199
0.15729
0.03154
-0.08992
-0.12520
0.22776
0.01498
-0.01320
-0.04287
-0.02455
0.31651
-0.05303
0.02511
0.04905
-0.06171
-0.08494
0.04716
-0.00601
0.04934
0.00097
0.13991
0.03928
-0.03468
0.03338
0.12848
-0.04135
-0.06718
0.05337
0.08543
-0.01137
0.03927
0.12189
-0.08978
-0.04819
0.29166
-0.11512
-0.04580
0.01366
-0.09972
0.02437
0.08390
-0.07759
0.13802
-0.01309
0.04975
-0.06435
0.03704
-0.06139
0.10894
-0.13669
0.01051
-0.05290
0.00300
-0.08731
-0.03945
-0.14574
0.00694
-0.08702
0.08403
0.09390
0.10533
-0.08062
0.00765
0.17623
-0.09925
0.01315
0.17850
0.16749
0.14692
-0.04003
0.18777
0.04445
-0.07450
0.12426
0.07409
0.08634
-0.01613
0.09516
0.03695
-0.06885
0.21745
-0.03730
-0.00189
-0.05470
0.03036
0.00363
0.09496
0.03647
0.06299
-0.00446
-0.02148
0.08365
0.13441
-0.07599
-0.09301
-0.07465
-0.04352
-0.03254
0.13686
-0.07224
-0.02390
-0.00763
0.05860
-0.06086
-0.12436
0.03683
0.08731
0.06035
0.07952
0.07900
0.07440
0.03048
0.03089
0.08272
-0.09058
-0.04012
-0.14465
-0.06144
0.09519
-0.09289
0.05489
0.01741
0.13660
-0.04970
0.08753
-0.10270
-0.05926
-0.04409
0.02346
-0.09480
0.05956
0.05135
0.03459
-0.03034
0.01909
0.01803
-0.01986
0.10299
-0.10114
0.25731
0.01994
0.00817
-0.07520
-0.03816
0.46019
-0.02807
0.10711
0.00091
0.22274
-0.14736
0.37049
0.06517
0.16236
0.03035
-0.02361
-0.11034
0.10768
0.04742
0.07345
-0.04006
0.03049
-0.01381
0.11618
0.09804
0.19499
0.31021
-0.07799
-0.02404
0.16769
0.05517
-0.04799
-0.09882
-0.03615
0.01722
0.01025
0.11524
-0.07708
-0.07864
-0.18132
0.20376
-0.00361
-0.00079
0.16910
0.02176
-0.09803
0.15781
-0.03379
0.00452
-0.07214
-0.02990
0.04110
0.06583
-0.03450
-0.07319
0.20898
-0.06349
0.15349
-0.04253
0.10816
-0.12164
0.04561
0.03440
0.16491
0.21169
-0.17537
0.01310
0.09156
0.13720
-0.03361
-0.11929
0.09325
0.06571
0.02348
0.27610
-0.06710
0.05385
0.28549
-0.12616
0.25544
-0.01144
0.07998
-0.13090
0.09097
-0.09751
-0.27906
0.34791
0.05203
0.04051
0.00361
0.01994
-0.02840
0.24739
-0.01449
0.13897
-0.10032
-0.03131
-0.00781
0.18396
-0.13275
0.15622
-0.02329
0.11422
0.09073
-0.18006
0.31785
-0.05565
0.12103
0.01681
0.02498
0.16262
-0.02536
0.08603
-0.04492
0.01366
-0.05023
-0.14561
-0.07263
-0.12367
-0.06424
0.16762
-0.12950
0.04291
-0.11351
0.20514
-0.08728
0.06967
-0.20601
0.10339
-0.00389
-0.07398
0.04497
0.01158
-0.07053
-0.08909
-0.13323
-0.00092
-0.06211
0.03437
-0.15147
-0.12251
-0.15711
-0.11425
-0.09834
-0.08036
-0.13945
-0.02542
-0.13690
0.28420
-0.19960
-0.12248
-0.16058
-0.15210
-0.15799
-0.16722
-0.13823
-0.00899
-0.14394
0.08546
-0.17839
-0.11467
-0.14171
-0.04995
0.10000
