# vtk DataFile Version 3.0
Point representing Sub_cellular elem model
ASCII

DATASET UNSTRUCTURED_GRID
POINTS 656 float
-0.00096 1.74040 1.02244 
0.00196 1.73968 -1.12724 
1.74213 1.07535 -0.04826 
1.74256 -1.07523 -0.04566 
0.00319 -1.74373 -1.12362 
0.00141 -1.73595 1.02722 
1.06580 0.00453 1.70617 
-1.07974 -0.00127 1.69329 
1.07957 -0.00236 -1.78929 
-1.07359 -0.00299 -1.79120 
-1.74204 1.07521 -0.05308 
-1.74016 -1.07793 -0.05088 
0.00067 2.05194 -0.05211 
1.02562 1.65907 0.58411 
0.62711 1.02248 1.61582 
-0.63811 1.02811 1.60369 
-1.02757 1.66066 0.57994 
1.02822 1.65933 -0.68432 
0.63713 1.02400 -1.70991 
-0.63181 1.02364 -1.71098 
-1.02536 1.65917 -0.68661 
2.05313 0.00011 -0.04667 
1.65637 0.63492 0.97983 
1.66336 0.63286 -1.07457 
1.02926 -1.66151 -0.68052 
1.02698 -1.65646 0.58787 
1.65807 -0.62923 0.98085 
1.66369 -0.63581 -1.07312 
0.00255 -2.05214 -0.04727 
0.63776 -1.02880 -1.70776 
-0.63117 -1.02927 -1.70901 
-1.02394 -1.66292 -0.68323 
0.63178 -1.02065 1.61784 
-0.63273 -1.02244 1.61720 
-1.02402 -1.65884 0.58435 
0.27278 0.06265 2.39600 
-1.66319 0.63314 0.97109 
-1.65957 -0.63458 0.97378 
0.00326 -0.00295 -2.10097 
-1.65924 0.63200 -1.07802 
-1.65887 -0.63712 -1.07692 
-2.05263 -0.00178 -0.05261 
-0.00017 1.97086 0.51851 
0.52262 1.77003 0.84285 
0.32140 1.44614 1.36544 
-0.32501 1.44779 1.36249 
-0.52442 1.77133 0.84042 
0.00140 1.97028 -0.62289 
0.52548 1.77001 -0.94551 
0.32598 1.44588 -1.46857 
-0.32130 1.44571 -1.46914 
-0.52194 1.76986 -0.94656 
1.44785 1.41721 0.27453 
1.44951 1.41730 -0.37272 
1.97201 0.57087 -0.04741 
1.77015 0.89431 0.47589 
1.77348 0.89388 -0.57177 
1.97220 -0.57066 -0.04603 
1.45025 -1.41833 -0.36937 
1.44865 -1.41587 0.27783 
1.77079 -0.89188 0.47788 
1.77390 -0.89547 -0.56964 
0.52670 -1.77323 -0.94165 
0.00294 -1.97292 -0.61856 
0.32694 -1.45041 -1.46557 
-0.32033 -1.45072 -1.46626 
-0.52062 -1.77390 -0.94293 
0.52455 -1.76623 0.84712 
0.00203 -1.96812 0.52336 
0.32389 -1.44209 1.37019 
-0.32269 -1.44319 1.36898 
-0.52147 -1.76755 0.84518 
0.88828 0.52564 1.73083 
1.41184 0.32634 1.40400 
1.41456 -0.31697 1.40383 
0.89610 -0.52142 1.72832 
0.54961 -0.00063 1.96476 
-0.91051 0.52844 1.71111 
-0.90043 -0.52567 1.72522 
-0.56907 0.00307 1.95260 
-1.42321 0.32174 1.39137 
-1.41936 -0.32455 1.39513 
0.89802 0.52111 -1.82002 
1.42153 0.32160 -1.49606 
1.42171 -0.32557 -1.49536 
0.89832 -0.52598 -1.81891 
0.57466 -0.00271 -2.01949 
-0.89225 0.52059 -1.82154 
-0.89193 -0.52654 -1.82056 
-0.56827 -0.00304 -2.02043 
-1.41629 0.32079 -1.49872 
-1.41611 -0.32648 -1.49816 
-1.44917 1.41797 0.26978 
-1.44783 1.41722 -0.37638 
-1.77317 0.89396 0.46966 
-1.77106 0.89322 -0.57600 
-1.97192 0.56993 -0.05299 
-1.44619 -1.42044 -0.37346 
-1.44610 -1.41876 0.27315 
-1.77030 -0.89558 0.47185 
-1.77023 -0.89741 -0.57435 
-1.97085 -0.57325 -0.05186 
0.55682 1.95014 0.25409 
-0.55660 1.95088 0.25232 
0.55776 1.95008 -0.35657 
-0.55569 1.95025 -0.35793 
0.89699 1.39252 1.15624 
1.05171 1.76116 -0.05017 
1.39197 1.20466 0.85190 
-0.00386 1.05223 1.70928 
1.19971 0.90023 1.34781 
0.28471 0.54438 1.93711 
-0.90236 1.39526 1.14948 
-0.32027 0.55027 1.91567 
-1.21070 0.90185 1.33592 
-1.05095 1.76177 -0.05317 
-1.39719 1.20587 0.84484 
0.90284 1.39295 -1.25559 
1.39713 1.20449 -0.94944 
0.00273 1.04820 -1.81205 
1.20875 0.89845 -1.44357 
0.30860 0.55370 -1.99993 
-0.89852 1.39251 -1.25728 
-0.30257 0.55352 -2.00042 
-1.20385 0.89780 -1.44578 
-1.39348 1.20392 -0.95236 
1.94937 0.30631 0.50980 
1.95320 0.30463 -0.60392 
1.94961 -0.30336 0.51046 
1.95333 -0.30629 -0.60318 
1.75853 0.00335 1.00511 
1.76524 -0.00149 -1.09828 
1.05276 -1.76111 -0.04600 
1.39782 -1.20722 -0.94670 
0.55914 -1.95136 -0.35203 
0.90372 -1.39666 -1.25257 
1.39383 -1.20083 0.85422 
0.55832 -1.94873 0.25878 
0.89990 -1.38839 1.15906 
1.20440 -0.89450 1.34845 
1.20927 -0.90240 -1.44161 
-0.55380 -1.95233 -0.35362 
-0.55400 -1.94993 0.25697 
0.00340 -1.05358 -1.80993 
0.30894 -0.55923 -1.99879 
-0.89760 -1.39754 -1.25461 
-0.30223 -0.55942 -1.99932 
-1.20332 -0.90333 -1.44415 
-1.04854 -1.76307 -0.04919 
-1.39265 -1.20866 -0.95012 
-0.00226 -1.04962 1.72020 
0.29924 -0.54822 1.93826 
-0.89816 -1.39101 1.15578 
-0.30762 -0.54504 1.94291 
-1.20443 -0.89943 1.34354 
-1.39263 -1.20462 0.84908 
-1.76338 -0.00162 0.99658 
-1.95218 0.30410 0.50289 
-1.95104 -0.30689 0.50360 
-1.76081 -0.00259 -1.10208 
-1.95053 0.30349 -0.60866 
-1.95027 -0.30791 -0.60813 
-0.00058 1.87219 0.78165 
0.26005 1.77200 0.94327 
0.15991 1.61052 1.20355 
-0.16244 1.61109 1.20254 
-0.26182 1.77271 0.94204 
0.00170 1.87151 -0.88623 
0.26294 1.77167 -1.04709 
0.16350 1.61007 -1.30784 
-0.15918 1.60999 -1.30813 
-0.25919 1.77158 -1.04759 
1.61228 1.25623 0.11271 
1.61318 1.25623 -0.21000 
1.87360 0.83424 -0.04781 
1.77309 0.99547 0.21300 
1.77468 0.99535 -0.30923 
1.87390 -0.83408 -0.04581 
1.61376 -1.25669 -0.20698 
1.61285 -1.25551 0.11570 
1.77354 -0.99429 0.21535 
1.77511 -0.99612 -0.30682 
0.26419 -1.77533 -1.04332 
0.00308 -1.87495 -0.88225 
0.16460 -1.61439 -1.30450 
-0.15807 -1.61457 -1.30486 
-0.25791 -1.77566 -1.04393 
0.26224 -1.76776 0.94783 
0.00175 -1.86833 0.78641 
0.16222 -1.60601 1.20834 
-0.16007 -1.60648 1.20772 
-0.25923 -1.76844 0.94685 
0.99263 0.26295 1.73389 
1.25057 0.16422 1.57056 
1.25303 -0.15377 1.56980 
0.99855 -0.25545 1.73137 
0.82147 0.00265 1.84617 
-1.01424 0.26042 1.71555 
-1.00619 -0.26139 1.72412 
-0.83910 0.00059 1.83309 
-1.26449 0.15790 1.55634 
-1.26105 -0.16180 1.55977 
0.99950 0.25859 -1.82146 
1.26049 0.15912 -1.65998 
1.26058 -0.16350 -1.65963 
0.99965 -0.26341 -1.82091 
0.83829 -0.00255 -1.92091 
-0.99360 0.25801 -1.82318 
-0.99344 -0.26400 -1.82270 
-0.83207 -0.00303 -1.92233 
-1.25483 0.15839 -1.66226 
-1.25474 -0.16426 -1.66197 
-1.61294 1.25649 0.10791 
-1.61227 1.25615 -0.21428 
-1.77444 0.99534 0.20758 
-1.77336 0.99492 -0.31379 
-1.87354 0.83375 -0.05306 
-1.61049 -1.25910 -0.21170 
-1.61045 -1.25837 0.11067 
-1.77208 -0.99744 0.20975 
-1.77208 -0.99845 -0.31185 
-1.87203 -0.83680 -0.05138 
0.00026 2.03160 0.23774 
0.00106 2.03126 -0.34200 
0.28533 2.02610 0.09656 
-0.28446 2.02641 0.09573 
0.28575 2.02599 -0.19996 
-0.28404 2.02616 -0.20069 
0.78051 1.73217 0.72199 
1.25040 1.55302 0.43333 
0.80539 1.82673 0.41926 
0.97953 1.54141 0.88083 
1.04570 1.73502 0.27159 
1.21983 1.45001 0.73312 
0.48001 1.24927 1.50322 
0.76580 0.78262 1.69018 
0.77740 1.21883 1.40323 
0.32013 1.04611 1.68633 
0.92431 0.98083 1.49633 
0.45955 0.79867 1.79221 
-0.48616 1.25280 1.49658 
-0.78366 0.78927 1.67228 
-0.32911 1.05048 1.67858 
-0.78503 1.22268 1.39423 
-0.47723 0.80616 1.77599 
-0.93625 0.98517 1.48321 
-0.78244 1.73379 0.71854 
-1.25216 1.55428 0.42875 
-0.80609 1.82794 0.41639 
-0.98307 1.54350 0.87563 
-1.04623 1.73613 0.26810 
-1.22338 1.45170 0.72748 
0.78329 1.73235 -0.82342 
1.25263 1.55321 -0.53251 
0.80702 1.82683 -0.52069 
1.04697 1.73515 -0.37190 
0.98363 1.54178 -0.98079 
1.22367 1.45022 -0.83206 
0.48553 1.24863 -1.60413 
0.77606 0.77896 -1.78262 
0.78520 1.21945 -1.50108 
0.32457 1.04302 -1.78580 
0.93377 0.97928 -1.59237 
0.47313 0.80285 -1.87707 
-0.48051 1.24836 -1.60495 
-0.77049 0.77851 -1.78392 
-0.31915 1.04283 -1.78633 
-0.78034 1.21902 -1.50246 
-0.46743 0.80257 -1.87783 
-0.92862 0.97875 -1.59400 
-0.78004 1.73217 -0.82507 
-1.25029 1.55309 -0.53549 
-0.80458 1.82687 -0.52257 
-1.04508 1.73532 -0.37452 
-0.97997 1.54142 -0.98278 
-1.22040 1.44984 -0.83469 
2.03266 0.28999 -0.04703 
2.03275 -0.28977 -0.04633 
2.02629 0.14889 0.23809 
2.02828 0.14790 -0.33181 
2.02635 -0.14740 0.23844 
2.02833 -0.14871 -0.33145 
1.73099 0.77292 0.73419 
1.54877 0.48459 1.20534 
1.53959 0.93043 0.93397 
1.44625 0.78281 1.17484 
1.82503 0.47103 0.75881 
1.73213 0.32385 0.99950 
1.73615 0.77187 -0.82960 
1.55737 0.48119 -1.29904 
1.54588 0.92949 -1.03005 
1.45441 0.78085 -1.27007 
1.83052 0.46898 -0.85328 
1.73915 0.32032 -1.09336 
1.25352 -1.55482 -0.52889 
0.78444 -1.73507 -0.81955 
1.04802 -1.73630 -0.36784 
1.22454 -1.45272 -0.82876 
0.80822 -1.82859 -0.51648 
0.98461 -1.54479 -0.97736 
1.25146 -1.55104 0.43687 
0.78216 -1.72893 0.72599 
1.04681 -1.73366 0.27566 
1.22139 -1.44687 0.73619 
0.80674 -1.82467 0.42357 
0.98147 -1.53780 0.88414 
1.73206 -0.76899 0.73572 
1.55114 -0.47698 1.20579 
1.82576 -0.46658 0.75973 
1.73308 -0.31741 1.00002 
1.54160 -0.92571 0.93558 
1.44942 -0.77658 1.17573 
1.73654 -0.77418 -0.82779 
1.55763 -0.48468 -1.29796 
1.83074 -0.47133 -0.85218 
1.73931 -0.32329 -1.09263 
1.54639 -0.93237 -1.02794 
1.45485 -0.78432 -1.26833 
0.00276 -2.03281 -0.33737 
0.00230 -2.03030 0.24265 
0.28735 -2.02675 -0.19521 
0.28703 -2.02545 0.10143 
-0.28209 -2.02729 -0.19605 
-0.28225 -2.02604 0.10053 
0.48633 -1.25332 -1.60152 
0.77652 -0.78381 -1.78098 
0.78596 -1.22375 -1.49849 
0.93436 -0.98367 -1.59028 
0.32523 -1.04815 -1.78366 
0.47362 -0.80806 -1.87540 
-0.47970 -1.25372 -1.60251 
-0.77001 -0.78433 -1.78244 
-0.31848 -1.04839 -1.78428 
-0.77956 -1.22441 -1.50014 
-0.46692 -0.80837 -1.87627 
-0.92802 -0.98437 -1.59216 
-0.77867 -1.73610 -0.82154 
-1.24878 -1.55659 -0.53231 
-0.80287 -1.82985 -0.51869 
-0.97885 -1.54593 -0.97976 
-1.04322 -1.73799 -0.37080 
-1.21928 -1.45418 -0.83187 
0.48307 -1.24608 1.50746 
0.77306 -0.78126 1.68888 
0.78139 -1.21508 1.40561 
0.92990 -0.97695 1.49682 
0.32242 -1.04463 1.69265 
0.46502 -0.80056 1.79399 
-0.48297 -1.24769 1.50620 
-0.77477 -0.78320 1.68870 
-0.32545 -1.04511 1.69292 
-0.78052 -1.21764 1.40319 
-0.47034 -0.79963 1.79613 
-0.92964 -0.98033 1.49426 
-0.77910 -1.73082 0.72320 
-1.24870 -1.55378 0.43271 
-0.80305 -1.82647 0.42088 
-1.04322 -1.73586 0.27228 
-0.97912 -1.54032 0.88060 
-1.21925 -1.44988 0.73189 
0.34411 -0.29848 2.11535 
-0.03029 -0.30465 2.37850 
0.39769 -0.07534 2.19603 
0.10987 0.21041 2.40629 
-0.17010 -0.43741 2.16565 
-0.35362 -0.26659 2.14616 
-1.55773 0.48154 1.19476 
-1.73584 0.77205 0.72688 
-1.45532 0.78230 1.16456 
-1.54607 0.93043 0.92580 
-1.73827 0.32022 0.99072 
-1.82972 0.46880 0.75119 
-1.55394 -0.48346 1.19801 
[...]
CELL_DATA 1960
SCALARS Strain double 
LOOKUP_TABLE default 
-0.08866
-0.08841
-0.08748
-0.08935
-0.08740
-0.08798
-0.08738
-0.08767
-0.08768
-0.08737
-0.08782
-0.08771
-0.08824
-0.08715
-0.08736
-0.08831
-0.08748
-0.08857
-0.08692
-0.08762
-0.08733
-0.08789
-0.08773
-0.08751
-0.08749
-0.08868
-0.08767
-0.08744
-0.08823
-0.08806
-0.10356
-0.07255
-0.06855
-0.10454
-0.06508
-0.10131
-0.09674
-0.07601
-0.07141
-0.08189
-0.08750
-0.08757
-0.08750
-0.08753
-0.08751
-0.08748
-0.08747
-0.08758
-0.08763
-0.08760
-0.08806
-0.08735
-0.08851
-0.08834
-0.08718
-0.08773
-0.08784
-0.08820
-0.08809
-0.08755
-0.03530
-0.03510
0.06967
0.06970
0.06967
0.06966
-0.03530
-0.03486
0.06959
0.07074
0.06988
0.06877
-0.02781
-0.04754
0.08263
0.04865
0.07243
0.09752
-0.03179
-0.04385
0.05819
0.06718
0.07496
0.07711
-0.03404
-0.03423
0.06958
0.06624
0.06699
0.06951
-0.03390
-0.03394
0.06945
0.06916
0.06916
0.06944
-0.03415
-0.03411
0.06930
0.06972
0.06971
0.06937
-0.03413
-0.03410
0.06968
0.06921
0.06930
0.06964
-0.03385
-0.03384
0.06955
0.06858
0.06884
0.06957
-0.03520
-0.03520
0.07039
0.06946
0.06946
0.06998
-0.03231
-0.03188
0.06586
0.07093
0.07150
0.06496
-0.03415
-0.03418
0.06951
0.06956
0.06948
0.06954
-0.03392
-0.03389
0.06923
0.06915
0.06907
0.06927
-0.03599
-0.03627
0.06982
0.06926
0.06962
0.07031
-0.03150
-0.03083
0.06795
0.06670
0.06820
0.06670
-0.03410
-0.03409
0.06950
0.06947
0.06939
0.06954
-0.03472
-0.03471
0.06885
0.06942
0.06950
0.06880
-0.03417
-0.03413
0.06947
0.06969
0.06971
0.06950
-0.03397
-0.03396
0.06966
0.06928
0.06938
0.06961
-0.03409
-0.03412
0.06971
0.06887
0.06873
0.06976
-0.03136
-0.04746
0.07698
0.07801
0.05969
0.08743
-0.02928
-0.04625
0.05338
0.07963
0.09125
0.07603
-0.03518
-0.03483
0.06890
0.06907
0.06978
0.06834
-0.04070
0.00943
-0.09300
0.02321
-0.02401
-0.12894
-0.03700
-0.03655
0.06497
0.07145
0.07039
0.06602
-0.03618
-0.03544
0.06995
0.06740
0.06721
0.06991
-0.03403
-0.03404
0.06950
0.06950
0.06953
0.06950
-0.03444
-0.03453
0.06941
0.06979
0.06986
0.06927
-0.03445
-0.03455
0.06938
0.06992
0.06995
0.06926
-0.03371
-0.03378
0.06839
0.06877
0.06880
0.06873
-0.06694
-0.04628
0.07993
0.07941
0.03393
0.03432
-0.06664
-0.04609
0.07996
0.07939
0.03354
0.03430
-0.06500
-0.04407
0.07947
0.07734
0.03101
0.03285
-0.06873
-0.04946
0.07984
0.07770
0.03258
0.03617
-0.06511
-0.04445
0.07897
0.07735
0.03182
0.03263
-0.06620
-0.04573
0.07998
0.07992
0.03431
0.03440
-0.06538
-0.04472
0.07987
0.07937
0.03362
0.03412
-0.06570
-0.04501
0.07948
0.08008
0.03439
0.03394
-0.06569
-0.04500
0.08006
0.07944
0.03390
0.03435
-0.06537
-0.04469
0.07986
0.07930
0.03347
0.03414
-0.06601
-0.04551
0.08022
0.07902
0.03392
0.03503
-0.06562
-0.04485
0.07988
0.07953
0.03386
0.03405
-0.06652
-0.04598
0.08039
0.07984
0.03440
0.03453
-0.06475
-0.04360
0.07822
0.08035
0.03426
0.03192
-0.06548
-0.04492
0.07954
0.07974
0.03413
0.03388
-0.06655
-0.04599
0.07941
0.08027
0.03508
0.03403
-0.06548
-0.04478
0.07981
0.07909
0.03330
0.03402
-0.06705
-0.04669
0.08016
0.07958
0.03418
0.03493
-0.06436
-0.04302
0.07878
0.07898
0.03253
0.03225
-0.06562
-0.04494
0.07997
0.07922
0.03371
0.03423
-0.06535
-0.04470
0.07960
0.07957
0.03379
0.03395
-0.06606
-0.04550
0.07959
0.08004
0.03432
0.03393
-0.06574
-0.04504
0.07969
0.08007
0.03440
0.03412
-0.06550
-0.04482
0.08004
0.07947
0.03394
0.03432
-0.06554
-0.04490
0.08006
0.07933
0.03355
0.03436
-0.06710
-0.04681
0.07968
0.07974
0.03397
0.03420
-0.06593
-0.04544
0.07951
0.07857
0.03290
0.03375
-0.06564
-0.04583
0.08008
0.07896
0.03324
0.03546
-0.06616
-0.04500
0.07892
0.08032
0.03466
0.03306
-0.06621
-0.04580
0.07865
0.07978
0.03366
0.03314
-0.06151
-0.04528
0.08286
0.07671
0.03821
0.03843
-0.06077
-0.04200
0.08130
0.07250
0.02978
0.03852
-0.05934
-0.04077
0.07483
0.07458
0.03262
0.03407
-0.05366
-0.03655
0.07688
0.06757
0.02918
0.03019
-0.01520
0.30130
0.14683
0.15720
0.02693
0.02625
-0.04572
-0.02849
0.06325
0.06486
0.01657
0.01754
-0.05491
-0.04093
0.06868
0.07988
0.03224
0.02812
-0.01958
0.17050
0.14220
0.02713
0.02656
-0.06536
-0.04761
0.06592
0.08072
0.04010
0.02673
-0.06888
-0.04800
0.07885
0.07666
0.03290
0.03593
-0.06555
-0.04491
0.07991
0.07976
0.03405
0.03426
-0.06564
-0.04501
0.07988
0.07989
0.03422
0.03418
-0.06555
-0.04491
0.07988
0.07983
0.03412
0.03418
-0.06557
-0.04493
0.07988
0.07985
0.03416
0.03424
-0.06552
-0.04486
0.07980
0.07985
0.03417
0.03414
-0.06552
-0.04489
0.07971
0.07982
0.03419
0.03395
-0.06547
-0.04480
0.07976
0.07979
0.03418
0.03401
-0.06557
-0.04489
0.07979
0.07982
0.03415
0.03417
-0.06576
-0.04519
0.07975
0.08004
0.03433
0.03400
-0.06572
-0.04517
0.07972
0.08008
0.03442
0.03399
-0.06625
-0.04546
0.07795
0.08073
0.03466
0.03156
-0.06531
-0.04465
0.07853
0.07988
0.03407
0.03330
-0.06704
-0.04687
0.08084
0.07819
0.03226
0.03479
-0.06623
-0.04545
0.08005
0.07950
0.03408
0.03453
-0.06516
-0.04451
0.07865
0.07922
0.03329
0.03332
-0.06571
-0.04499
0.07898
0.07996
0.03414
0.03343
-0.06602
-0.04550
0.07904
0.07930
0.03376
0.03358
-0.06637
-0.04588
0.07912
0.07944
0.03374
0.03335
-0.06616
-0.04546
0.08009
0.07937
0.03395
0.03455
-0.06549
-0.04471
0.07928
0.07914
0.03319
0.03350
0.07219
0.07220
0.02022
0.01974
0.01654
0.01696
0.07217
0.07210
0.02064
0.01850
0.01570
0.01739
0.07209
0.07201
0.02064
0.01985
0.01659
0.01746
0.07213
0.07209
0.02076
0.01956
0.01607
0.01760
0.07494
0.07826
0.02061
0.01605
0.01633
0.01365
0.07196
0.07175
0.02048
0.02015
0.01693
0.01743
0.07037
0.06930
0.02201
0.02028
0.01680
0.01966
0.07856
0.08466
0.01721
0.01905
0.01406
0.01103
0.07276
0.07320
0.02449
0.01605
0.01330
0.02055
0.13188
-0.16088
0.08718
0.02594
0.07717
0.02649
0.06784
0.06804
0.02035
0.01935
0.01485
0.01836
0.09926
0.08498
0.06694
0.02610
0.08330
0.02615
0.07045
0.06808
0.00807
0.02540
0.01924
0.00891
0.07015
0.07069
0.02082
0.02040
0.01728
0.01762
0.07283
0.07371
0.01671
0.01876
0.01654
0.01172
0.07169
0.07174
0.02043
0.02069
0.01748
0.01727
0.07195
0.07198
0.02030
0.02053
0.01743
0.01710
0.07223
0.07221
0.02032
0.02029
0.01717
0.01720
0.07218
0.07213
0.02032
0.02051
0.01730
0.01711
0.07193
0.07198
0.02058
0.02045
0.01723
0.01740
0.07161
0.07150
0.02063
0.02047
0.01733
0.01742
0.07189
0.07196
0.02054
0.02045
0.01724
0.01739
0.07209
0.07201
0.02017
0.02060
0.01738
0.01690
0.07214
0.07222
0.01984
0.02050
0.01738
0.01680
0.07336
0.07378
0.02085
0.01798
0.01481
0.01757
0.07194
0.07194
0.02063
0.02019
0.01699
0.01732
0.07177
0.07127
0.02196
0.01840
0.01496
0.01941
0.07221
0.07206
0.02040
0.02009
0.01696
0.01724
0.06783
0.06843
0.02381
0.01957
0.01714
0.02003
0.07205
0.07203
0.02046
0.02041
0.01725
0.01725
0.07180
0.07199
0.01946
0.02053
0.01739
0.01612
0.07173
0.07181
0.02035
0.02057
0.01744
0.01721
0.07149
0.07142
0.02003
0.02059
0.01738
0.01683
0.07186
0.07192
0.02031
0.02069
0.01748
0.01718
0.07172
0.07143
0.02155
0.01810
0.01499
0.01832
0.07202
0.07193
0.02016
0.01922
0.01606
0.01688
0.07354
0.07514
0.02088
0.01729
0.01585
0.01503
0.06949
0.07154
0.02071
0.01884
0.01754
0.01699
0.07211
0.07216
0.02045
0.02045
0.01725
0.01723
0.07210
0.07217
0.02022
0.01974
0.01648
0.01704
0.07130
0.07136
0.02009
0.01975
0.01647
0.01694
0.07221
0.07220
0.02048
0.02033
0.01721
0.01732
0.07203
0.07204
0.02057
0.02045
0.01725
0.01739
0.07167
0.07153
0.02058
0.02069
0.01753
0.01735
0.07195
0.07199
0.02053
0.02050
0.01732
0.01738
0.07206
0.07198
0.02023
0.02074
0.01755
0.01694
0.07117
0.07125
0.02033
0.02016
0.01704
0.01701
0.07233
0.07239
0.01987
0.02039
0.01729
0.01682
0.08196
0.07694
0.02415
0.01964
0.01083
0.02333
0.11096
-0.02755
0.07967
0.02601
0.07030
0.02573
0.07637
0.07364
0.01774
0.01975
0.01331
0.01715
0.11525
0.35202
0.07192
0.02539
0.07855
0.02551
0.07467
0.07324
0.01776
0.01798
0.01379
0.01635
0.07039
0.07006
0.02008
0.02005
0.01700
0.01692
0.07193
0.07079
0.01530
0.02051
0.01660
0.01392
0.06951
0.07034
0.02075
0.01949
0.01634
0.01726
0.07185
0.07145
0.01985
0.01906
0.01514
0.01696
0.07242
0.07246
0.02020
0.02021
0.01693
0.01689
0.07161
0.07145
0.02091
0.01985
0.01682
0.01778
0.07162
0.07145
0.02093
0.01985
0.01677
0.01779
0.07111
0.07001
-0.00631
-0.00553
0.06988
-0.00676
-0.00550
0.07021
-0.00765
-0.00780
0.06995
-0.00573
-0.00517
-0.00749
-0.00782
0.07114
0.07111
-0.00558
-0.00553
0.07067
-0.00626
-0.00580
0.07132
-0.00551
-0.00595
0.07066
-0.00597
-0.00553
-0.00631
-0.00581
0.07140
0.07025
-0.00597
-0.00503
0.07062
-0.00611
-0.00567
0.07130
0.07107
-0.00535
-0.00546
-0.00592
-0.00708
-0.00580
-0.00625
0.07040
0.07142
-0.00488
-0.00588
0.07134
0.07016
-0.00679
-0.00579
0.07061
-0.00571
-0.00492
-0.00689
-0.00720
-0.00644
-0.00562
0.07093
0.07087
-0.00610
-0.00592
0.07128
-0.00552
-0.00580
0.07129
-0.00548
-0.00576
0.07068
-0.00596
-0.00559
-0.00622
-0.00560
0.07082
0.07084
-0.00597
-0.00577
0.06979
-0.00711
-0.00623
0.07004
-0.00710
-0.00575
0.07125
-0.00546
-0.00652
-0.00605
-0.00685
0.06531
0.09943
-0.00461
-0.02236
0.05576
-0.00745
-0.00083
0.05619
-0.00768
-0.00232
0.10689
-0.00895
-0.03646
-0.03737
-0.04131
0.11110
0.04191
-0.05318
-0.01629
0.09324
0.05973
-0.03119
-0.01472
-0.03964
-0.03020
0.06155
0.00474
-0.01681
-0.00223
-0.00417
0.07112
0.07104
-0.00580
-0.00567
0.07111
-0.00568
-0.00570
0.07108
-0.00577
-0.00571
0.07111
-0.00570
-0.00569
-0.00571
-0.00574
0.07103
0.07101
-0.00575
-0.00588
0.07106
0.07099
-0.00576
-0.00583
-0.00571
-0.00570
0.07122
-0.00562
-0.00584
-0.00557
-0.00586
0.06972
0.07179
-0.00529
-0.00746
0.07114
-0.00599
-0.00663
0.06999
-0.00688
-0.00520
0.07065
-0.00572
-0.00538
-0.00664
-0.00659
0.07029
0.07110
-0.00590
-0.00642
0.07082
-0.00597
-0.00644
0.07060
-0.00621
-0.00602
0.07051
-0.00596
-0.00550
-0.00654
-0.00634
0.05633
0.05646
0.07738
0.07723
0.05646
0.05656
0.07744
0.07737
-0.01554
-0.01704
0.04960
-0.01586
-0.01752
0.04977
-0.01679
0.04981
-0.01698
0.04991
0.05620
0.05630
0.07741
0.07755
0.05611
0.05730
0.07764
0.07649
-0.01528
-0.01664
0.04928
-0.01556
-0.01818
0.04782
-0.01651
0.04976
-0.01665
0.05154
0.04655
0.05179
0.07733
0.07454
0.06029
0.07303
0.07931
0.07292
-0.02135
-0.01448
0.04927
0.00633
-0.01462
0.02935
-0.02002
0.05396
-0.04776
0.00939
0.04316
0.05361
0.08158
0.07034
0.07552
0.03621
0.04035
0.07200
0.00222
-0.02142
0.01886
-0.01961
-0.01701
0.05270
-0.03833
0.01687
-0.01025
0.03796
0.05366
0.05586
0.07683
0.07381
0.05661
0.05298
0.07489
0.07799
-0.01461
-0.01579
0.04761
-0.01443
-0.01580
0.04878
-0.01613
0.04992
-0.01669
0.04480
0.05583
0.05627
0.07726
0.07682
0.05614
0.05606
0.07707
0.07708
-0.01443
-0.01580
0.04914
-0.01589
0.04947
-0.01442
-0.01578
0.04960
-0.01588
0.04938
0.05653
0.05612
0.07697
0.07748
0.05615
0.05647
0.07739
0.07714
-0.01462
-0.01604
0.04984
-0.01466
-0.01610
0.04952
-0.01598
0.04943
-0.01601
0.04980
0.05606
0.05648
0.07746
0.07690
0.05641
0.05605
0.07708
0.07731
-0.01465
-0.01608
0.04948
-0.01458
-0.01601
0.04976
-0.01600
0.04977
-0.01593
0.04928
0.05551
0.05634
0.07729
0.07665
0.05632
0.05554
0.07613
0.07731
-0.01429
-0.01571
0.04854
-0.01567
0.04966
-0.01442
-0.01580
0.04970
-0.01583
0.04906
0.05640
0.05674
0.07802
0.07723
0.05723
0.05622
0.07703
0.07772
-0.01631
-0.01771
0.04970
-0.01523
-0.01660
0.04982
-0.01762
0.05110
-0.01665
0.04956
0.05698
0.05297
0.07466
0.07835
0.05186
0.05942
0.07922
0.07141
-0.01219
-0.01415
0.05002
-0.01318
0.04582
-0.01385
-0.01512
0.04623
-0.01583
0.05224
0.05632
0.05622
0.07713
0.07718
0.05636
0.05631
0.07730
0.07732
-0.01472
-0.01609
0.04973
-0.01612
0.04966
-0.01464
-0.01597
0.04956
-0.01606
0.04959
0.05568
0.05611
0.07706
0.07672
0.05597
0.05605
0.07694
0.07698
-0.01445
-0.01587
0.04889
-0.01441
-0.01584
0.04949
-0.01582
0.04927
-0.01577
0.04944
0.05628
0.05693
0.07755
0.07712
0.05631
0.05651
0.07727
0.07738
-0.01625
-0.01744
0.04971
-0.01665
-0.01816
0.05035
-0.01761
0.04946
-0.01861
0.04881
0.05414
0.05397
0.07591
0.07609
0.05464
0.05519
0.07358
0.07375
-0.01186
-0.01388
0.04686
-0.01279
0.04879
-0.01281
-0.01425
0.04703
-0.01481
0.04918
0.05610
0.05636
0.07728
0.07693
0.05628
0.05629
0.07728
0.07726
-0.01461
-0.01602
0.04950
-0.01599
0.04961
-0.01462
-0.01603
0.04974
-0.01599
0.04956
0.05637
0.05587
0.07684
0.07739
0.05534
0.05609
0.07701
0.07624
-0.01513
-0.01652
0.04965
-0.01646
0.04873
-0.01533
-0.01669
0.04918
-0.01668
0.04950
0.05653
0.05628
0.07716
0.07748
0.05629
0.05645
0.07737
0.07725
-0.01466
-0.01609
0.04983
-0.01601
0.04959
-0.01465
-0.01609
0.04964
-0.01602
0.04979
0.05613
0.05645
0.07744
0.07696
0.05639
0.05612
0.07715
0.07728
-0.01453
-0.01593
0.04953
-0.01441
-0.01582
0.04973
-0.01592
0.04976
-0.01579
0.04935
0.05560
0.05655
0.07748
0.07668
0.05642
0.05561
0.07641
0.07746
-0.01470
-0.01608
0.04882
-0.01457
-0.01592
0.04992
-0.01613
0.04966
-0.01601
0.04909
0.05163
0.05350
0.07673
0.07912
0.04875
0.08252
0.07828
0.05230
-0.02028
-0.01508
0.05079
-0.01476
0.04784
-0.00304
-0.01843
0.03606
-0.04596
0.02448
0.05365
0.05013
0.07673
0.07759
0.07321
0.05331
0.06278
0.08092
0.00652
-0.01299
0.03262
-0.02161
-0.01562
0.05143
-0.03971
0.01313
-0.01863
0.04980
0.05577
0.05550
0.07638
0.07715
0.05571
0.05601
0.07658
0.07641
-0.01526
-0.01664
0.04886
-0.01645
0.04922
-0.01535
-0.01758
0.04743
-0.01665
0.04980
-0.19239
-0.02598
-0.04844
-0.27234
-0.22855
0.23282
-0.03177
-0.00524
-0.15117
0.05606
-0.21912
-0.06031
0.05956
0.05124
0.06963
0.07839
0.05339
0.05703
0.07859
0.07484
-0.01967
-0.02326
0.05227
-0.01950
0.04716
-0.01616
-0.01752
0.04603
-0.01741
0.04975
0.05390
0.05740
0.07792
0.07432
0.05622
0.05479
0.07586
0.07714
-0.01585
-0.01859
0.04696
-0.01674
0.04982
-0.01722
-0.02037
0.04971
-0.01761
0.04857
0.05631
0.05629
0.07723
0.07727
0.05630
0.05631
0.07722
0.07724
-0.01452
-0.01591
0.04960
-0.01593
0.04961
-0.01453
-0.01592
0.04961
-0.01594
0.04966
0.05654
0.05611
0.07715
0.07754
0.05620
0.05668
0.07753
0.07697
-0.01500
-0.01631
0.04981
-0.01650
0.04963
-0.01499
-0.01629
0.04930
-0.01648
0.05008
0.05666
0.05611
0.07714
0.07761
0.05615
0.05677
0.07763
0.07691
-0.01500
-0.01628
0.04998
-0.01650
0.04958
-0.01503
-0.01631
0.04933
-0.01652
0.05012
0.05550
0.05550
0.07609
0.07656
0.05524
0.05561
0.07660
0.07650
-0.01447
-0.01573
0.04886
-0.01602
0.04805
-0.01413
-0.01552
0.04904
-0.01557
0.04902
-0.01827
-0.01776
-0.01891
-0.01691
0.08574
0.08541
-0.01919
-0.01691
0.08629
-0.01628
-0.02083
0.08512
-0.02022
-0.01613
0.08102
-0.01784
-0.01700
-0.01794
-0.01693
0.08568
0.08567
-0.01697
-0.01725
0.08522
-0.01735
-0.01733
0.08582
-0.01724
-0.01699
0.08512
-0.01763
-0.01720
-0.01762
-0.01596
0.08561
0.08395
-0.01716
-0.01723
0.08544
-0.01881
-0.01650
-0.01776
-0.01705
0.08664
0.08550
-0.01864
-0.01574
-0.01786
-0.01724
0.08498
0.08576
-0.01709
-0.01846
-0.01707
-0.01726
0.08558
0.08515
-0.01914
-0.01585
0.08511
-0.01699
-0.01766
-0.01694
-0.01733
0.08522
0.08542
-0.01779
-0.01726
0.08579
-0.01734
-0.01715
0.08581
-0.01703
-0.01708
0.08516
-0.01868
-0.01754
-0.01897
-0.01734
0.08542
0.08560
-0.01773
-0.01774
0.08460
-0.01742
-0.01615
0.08571
-0.01809
-0.01819
0.08595
-0.02085
-0.01434
0.01959
-0.08028
0.08765
0.02372
-0.01814
-0.01373
0.08109
-0.01754
-0.01475
0.08341
0.03652
-0.10635
0.00262
0.04413
-0.11222
-0.00754
-0.02691
0.00747
0.07823
0.02502
-0.08107
-0.01696
-0.02236
0.02367
0.08758
-0.01813
-0.02448
0.08513
-0.01714
-0.01729
-0.01718
-0.01711
0.08569
0.08553
-0.01725
-0.01717
0.08565
-0.01717
-0.01718
0.08566
-0.01719
-0.01712
0.08560
-0.01717
-0.01715
-0.01709
-0.01742
0.08550
0.08558
-0.01712
-0.01716
-0.01700
-0.01737
0.08554
0.08555
-0.01740
-0.01739
0.08592
-0.01747
-0.01682
-0.01832
-0.01964
0.08394
0.08683
-0.01706
-0.01784
0.08575
-0.01838
-0.01679
0.08386
-0.01782
-0.01675
0.08510
-0.01737
-0.01749
-0.01729
-0.01779
0.08474
0.08589
-0.01776
-0.01784
0.08444
-0.01828
-0.01738
0.08518
-0.01779
-0.01684
0.08506
0.04855
0.04826
0.04791
0.04865
0.04846
0.04687
0.05149
0.04551
0.04836
0.10922
-0.02670
-0.04349
0.04107
0.04758
0.04934
0.04813
0.04837
0.04854
0.04853
0.04831
0.04828
0.04793
0.04845
0.04850
0.05042
0.04814
0.04520
0.04831
0.04841
0.04828
0.04807
0.04753
0.04841
0.04824
0.04829
0.04853
0.04794
0.04855
0.04654
0.04832
0.04793
0.04752
0.04852
0.04840
0.04832
0.04797
0.04840
0.04869
0.09668
-0.01858
-0.02394
0.04891
0.04918
0.04572
0.04789
0.04596
0.04786
0.04886
0.04790
0.04794
-0.04553
0.15145
0.22015
-0.02476
-0.05692
-0.25161
-0.04651
-0.16511
-0.00221
-0.03710
-0.17144
0.17847
-0.19268
0.11641
0.11779
0.11405
-0.09097
-0.11374
-0.09752
-0.03346
-0.26901
-0.01377
0.46457
-0.00986
-0.04289
0.08853
-0.06834
-0.10643
0.06275
0.00436
0.02732
-0.25150
-0.06745
0.13959
0.01728
-0.10526
0.31385
-0.19239
-0.31571
0.05678
-0.16598
-0.11064
-0.19695
-0.01066
-0.18993
-0.02718
0.10000
