# vtk DataFile Version 3.0
Point representing Sub_cellular elem model
ASCII

DATASET UNSTRUCTURED_GRID
POINTS 650 float
-0.00021 1.73853 1.04856 
0.00100 1.74151 -1.10374 
1.74230 1.07663 -0.02644 
1.74200 -1.07657 -0.02435 
0.00153 -1.74338 -1.10158 
-0.00125 -1.73656 1.05113 
1.07928 0.00272 1.72286 
-1.08406 0.00175 1.72227 
1.07821 -0.00139 -1.76584 
-1.07508 -0.00144 -1.76701 
-1.74174 1.07645 -0.02827 
-1.74168 -1.07730 -0.02747 
0.00045 2.05259 -0.02820 
1.02518 1.65963 0.60714 
0.63061 1.02265 1.64048 
-0.63525 1.02508 1.63748 
-1.02559 1.66013 0.60580 
1.02776 1.66094 -0.66150 
0.63597 1.02528 -1.68619 
-0.63317 1.02523 -1.68675 
-1.02614 1.66076 -0.66232 
2.05356 -0.00000 -0.02534 
1.65900 0.63590 0.99965 
1.66273 0.63374 -1.05187 
1.02789 -1.66182 -0.65875 
1.02452 -1.65849 0.60998 
1.65934 -0.63341 1.00004 
1.66273 -0.63548 -1.05077 
0.00066 -2.05256 -0.02526 
0.63626 -1.02794 -1.68493 
-0.63287 -1.02804 -1.68579 
-1.02573 -1.66233 -0.66067 
0.62973 -1.02108 1.64261 
-0.63649 -1.02293 1.64004 
-1.02576 -1.65954 0.60758 
0.15159 -0.12937 2.23895 
-1.66209 0.63516 0.99713 
-1.66218 -0.63466 0.99781 
0.00172 -0.00158 -2.07687 
-1.66048 0.63358 -1.05361 
-1.66038 -0.63574 -1.05314 
-2.05325 -0.00044 -0.02817 
0.00016 1.96998 0.54320 
0.52247 1.76915 0.86741 
0.32186 1.44437 1.39272 
-0.32345 1.44513 1.39179 
-0.52282 1.76965 0.86665 
0.00072 1.97197 -0.59938 
0.52476 1.77179 -0.92234 
0.32494 1.44747 -1.44501 
-0.32251 1.44742 -1.44526 
-0.52293 1.77169 -0.92272 
1.44776 1.41855 0.29663 
1.44932 1.41873 -0.35036 
1.97245 0.57165 -0.02590 
1.77094 0.89558 0.49701 
1.77335 0.89494 -0.54958 
1.97226 -0.57163 -0.02476 
1.44914 -1.41912 -0.34777 
1.44734 -1.41793 0.29917 
1.77071 -0.89454 0.49854 
1.77320 -0.89580 -0.54786 
0.52517 -1.77320 -0.91979 
0.00122 -1.97297 -0.59673 
0.32538 -1.44980 -1.44321 
-0.32205 -1.44990 -1.44371 
-0.52239 -1.77346 -0.92073 
0.52156 -1.76747 0.87025 
-0.00020 -1.96887 0.54611 
0.32073 -1.44232 1.39490 
-0.32476 -1.44300 1.39395 
-0.52343 -1.76824 0.86885 
0.89736 0.52468 1.75288 
1.41864 0.32623 1.42220 
1.42018 -0.32157 1.42112 
0.90223 -0.52549 1.74886 
0.56827 -0.00408 1.98054 
-0.90537 0.52670 1.74836 
-0.90761 -0.52444 1.74942 
-0.57369 -0.00102 1.97892 
-1.42381 0.32453 1.41973 
-1.42413 -0.32315 1.42027 
0.89672 0.52220 -1.79631 
1.42045 0.32246 -1.47290 
1.42050 -0.32484 -1.47242 
0.89685 -0.52500 -1.79566 
0.57315 -0.00153 -1.99565 
-0.89367 0.52215 -1.79718 
-0.89353 -0.52507 -1.79673 
-0.56978 -0.00155 -1.99624 
-1.41769 0.32237 -1.47442 
-1.41762 -0.32497 -1.47417 
-1.44784 1.41864 0.29502 
-1.44808 1.41853 -0.35170 
-1.77191 0.89535 0.49484 
-1.77179 0.89470 -0.55140 
-1.97200 0.57134 -0.02825 
-1.44787 -1.41978 -0.35047 
-1.44780 -1.41888 0.29630 
-1.77194 -0.89549 0.49553 
-1.77170 -0.89626 -0.55076 
-1.97201 -0.57223 -0.02788 
0.55646 1.95046 0.27768 
-0.55594 1.95063 0.27716 
0.55725 1.95151 -0.33337 
-0.55606 1.95146 -0.33378 
0.89724 1.39259 1.18011 
1.05131 1.76243 -0.02740 
1.39246 1.20593 0.87378 
-0.00174 1.04888 1.74240 
1.20288 0.90109 1.36972 
0.30279 0.54668 1.95307 
-0.89950 1.39371 1.17791 
-0.30978 0.54854 1.95104 
-1.20783 0.90170 1.36619 
-1.05054 1.76245 -0.02836 
-1.39453 1.20629 0.87146 
0.90206 1.39441 -1.23241 
1.39664 1.20577 -0.92671 
0.00144 1.04964 -1.78800 
1.20782 0.89955 -1.42032 
0.30720 0.55497 -1.97583 
-0.89978 1.39428 -1.23315 
-0.30400 0.55496 -1.97611 
-1.20522 0.89945 -1.42144 
-1.39461 1.20557 -0.92796 
1.95082 0.30638 0.53017 
1.95301 0.30519 -0.58183 
1.95075 -0.30505 0.53070 
1.95295 -0.30622 -0.58123 
1.76178 0.00164 1.02374 
1.76445 -0.00092 -1.07570 
1.05110 -1.76223 -0.02430 
1.39669 -1.20718 -0.92466 
0.55745 -1.95185 -0.33029 
0.90235 -1.39632 -1.23038 
1.39225 -1.20450 0.87528 
0.55618 -1.94973 0.28090 
0.89655 -1.39080 1.18204 
1.20416 -0.89931 1.36906 
1.20798 -0.90181 -1.41900 
-0.55561 -1.95227 -0.33146 
-0.55587 -1.95034 0.27956 
0.00176 -1.05250 -1.78689 
0.30736 -0.55802 -1.97524 
-0.89938 -1.39659 -1.23182 
-0.30384 -0.55804 -1.97559 
-1.20500 -0.90201 -1.42069 
-1.05029 -1.76301 -0.02654 
-1.39435 -1.20759 -0.92695 
-0.00268 -1.04759 1.74489 
0.29739 -0.53985 1.96176 
-0.90022 -1.39206 1.17983 
-0.31214 -0.54996 1.95268 
-1.20836 -0.90030 1.36773 
-1.39472 -1.20560 0.87274 
-1.76484 0.00018 1.02145 
-1.95210 0.30572 0.52762 
-1.95212 -0.30593 0.52783 
-1.76213 -0.00109 -1.07786 
-1.95145 0.30495 -0.58418 
-1.95144 -0.30654 -0.58398 
-0.00001 1.87069 0.80697 
0.26034 1.77050 0.96867 
0.16045 1.60860 1.23026 
-0.16132 1.60885 1.22993 
-0.26068 1.77079 0.96828 
0.00086 1.87335 -0.86277 
0.26209 1.77349 -1.02375 
0.16249 1.61180 -1.28434 
-0.16028 1.61177 -1.28446 
-0.26018 1.77344 -1.02394 
1.61237 1.25760 0.13459 
1.61315 1.25759 -0.18792 
1.87392 0.83535 -0.02616 
1.77349 0.99676 0.23454 
1.77473 0.99653 -0.28725 
1.87366 -0.83531 -0.02452 
1.61289 -1.25776 -0.18554 
1.61202 -1.25725 0.13694 
1.77319 -0.99624 0.23642 
1.77450 -0.99693 -0.28531 
0.26259 -1.77514 -1.02139 
0.00140 -1.87481 -0.86036 
0.16299 -1.61392 -1.28234 
-0.15976 -1.61398 -1.28260 
-0.25963 -1.77527 -1.02184 
0.25935 -1.76862 0.97141 
-0.00072 -1.86909 0.80973 
0.15924 -1.60644 1.23268 
-0.16252 -1.60673 1.23223 
-0.26152 -1.76904 0.97069 
1.00278 0.26239 1.75405 
1.26003 0.16360 1.58821 
1.26248 -0.15737 1.58645 
1.00982 -0.25890 1.74935 
0.83790 0.00096 1.86363 
-1.01051 0.26247 1.75079 
-1.01278 -0.25903 1.75070 
-0.84290 0.00227 1.86289 
-1.26575 0.16164 1.58624 
-1.26646 -0.15911 1.58632 
0.99816 0.25962 -1.79785 
1.25925 0.16003 -1.63664 
1.25928 -0.16263 -1.63642 
0.99822 -0.26243 -1.79752 
0.83684 -0.00147 -1.89725 
-0.99504 0.25957 -1.79888 
-0.99498 -0.26249 -1.79866 
-0.83356 -0.00150 -1.89813 
-1.25628 0.15996 -1.63800 
-1.25624 -0.16272 -1.63787 
-1.61214 1.25752 0.13288 
-1.61222 1.25740 -0.18952 
-1.77361 0.99658 0.23255 
-1.77363 0.99630 -0.28909 
-1.87341 0.83511 -0.02825 
-1.61210 -1.25845 -0.18850 
-1.61208 -1.25810 0.13392 
-1.77361 -0.99708 0.23329 
-1.77356 -0.99752 -0.28836 
-1.87339 -0.83598 -0.02768 
0.00031 2.03148 0.26199 
0.00058 2.03254 -0.31833 
0.28506 2.02654 0.12032 
-0.28432 2.02659 0.12009 
0.28532 2.02709 -0.17644 
-0.28429 2.02709 -0.17665 
0.78010 1.73203 0.74574 
1.25010 1.55408 0.45583 
0.80494 1.82708 0.44262 
0.97924 1.54169 0.90419 
1.04527 1.73594 0.29444 
1.21966 1.45091 0.75571 
0.48069 1.24769 1.53059 
0.77175 0.78153 1.71411 
0.77883 1.21879 1.42769 
0.32115 1.04331 1.71607 
0.92753 0.98083 1.52000 
0.46705 0.79979 1.81525 
-0.48355 1.24929 1.52873 
-0.77874 0.78477 1.70954 
-0.32497 1.04528 1.71440 
-0.78227 1.22043 1.42500 
-0.47266 0.80295 1.81242 
-0.93285 0.98274 1.51614 
-0.78051 1.73260 0.74465 
-1.25040 1.55440 0.45432 
-0.80478 1.82742 0.44174 
-0.98048 1.54248 0.90248 
-1.04503 1.73617 0.29334 
-1.22086 1.45147 0.75383 
0.78270 1.73405 -0.80042 
1.25230 1.55472 -0.50990 
0.80652 1.82844 -0.49773 
1.04657 1.73667 -0.34914 
0.98304 1.54335 -0.95783 
1.22322 1.45170 -0.80931 
0.48444 1.25006 -1.58048 
0.77483 0.78012 -1.75888 
0.78422 1.22080 -1.47764 
0.32334 1.04438 -1.76190 
0.93271 0.98047 -1.56887 
0.47183 0.80410 -1.85312 
-0.48181 1.25000 -1.58088 
-0.77188 0.78007 -1.75959 
-0.32048 1.04436 -1.76218 
-0.78167 1.22071 -1.47830 
-0.46881 0.80408 -1.85354 
-0.93000 0.98039 -1.56971 
-0.78096 1.73390 -0.80101 
-1.25083 1.55453 -0.51098 
-0.80513 1.82831 -0.49835 
-1.04535 1.73654 -0.35001 
-0.98107 1.54318 -0.95861 
-1.22138 1.45149 -0.81034 
2.03315 0.29035 -0.02563 
2.03305 -0.29035 -0.02504 
2.02721 0.14878 0.25898 
2.02838 0.14820 -0.31007 
2.02716 -0.14816 0.25926 
2.02834 -0.14875 -0.30977 
1.73245 0.77412 0.75472 
1.55317 0.48513 1.22434 
1.54112 0.93182 0.95487 
1.44924 0.78401 1.19534 
1.82708 0.47150 0.77872 
1.73541 0.32370 1.01850 
1.73579 0.77282 -0.80716 
1.55650 0.48204 -1.27609 
1.54534 0.93056 -1.00733 
1.45362 0.78185 -1.24709 
1.83009 0.46972 -0.83088 
1.73844 0.32104 -1.07071 
1.25226 -1.55535 -0.50718 
0.78299 -1.73520 -0.79773 
1.04655 -1.73700 -0.34615 
1.22331 -1.45286 -0.80688 
0.80669 -1.82903 -0.49476 
0.98327 -1.54477 -0.95541 
1.24958 -1.55322 0.45852 
0.77931 -1.73061 0.74861 
1.04483 -1.73524 0.29750 
1.21910 -1.44968 0.75794 
0.80441 -1.82611 0.44575 
0.97847 -1.54017 0.90662 
1.73243 -0.77244 0.75576 
1.55406 -0.48163 1.22400 
1.82710 -0.46947 0.77935 
1.73562 -0.32062 1.01871 
1.54130 -0.92997 0.95570 
1.45012 -0.78157 1.19519 
1.73572 -0.77414 -0.80574 
1.55654 -0.48413 -1.27531 
1.83004 -0.47113 -0.83000 
1.73844 -0.32284 -1.07014 
1.54535 -0.93217 -1.00573 
1.45370 -0.78386 -1.24584 
0.00098 -2.03304 -0.31551 
0.00027 -2.03091 0.26495 
0.28554 -2.02722 -0.17337 
0.28505 -2.02613 0.12347 
-0.28392 -2.02748 -0.17400 
-0.28415 -2.02643 0.12280 
0.48481 -1.25257 -1.57893 
0.77504 -0.78287 -1.75791 
0.78453 -1.22313 -1.47599 
0.93295 -0.98294 -1.56755 
0.32366 -1.04717 -1.76071 
0.47207 -0.80700 -1.85220 
-0.48143 -1.25268 -1.57963 
-0.77167 -0.78296 -1.75890 
-0.32016 -1.04722 -1.76114 
-0.78131 -1.22331 -1.47715 
-0.46858 -0.80705 -1.85279 
-0.92973 -0.98310 -1.56884 
-0.78047 -1.73559 -0.79917 
-1.25052 -1.55595 -0.50953 
-0.80467 -1.82953 -0.49636 
-0.98065 -1.54516 -0.95711 
-1.04499 -1.73764 -0.34825 
-1.22103 -1.45333 -0.80902 
0.48007 -1.24616 1.53243 
0.77406 -0.78368 1.71204 
0.77827 -1.21696 1.42935 
0.92859 -0.98026 1.51940 
0.32080 -1.04266 1.71826 
0.46446 -0.79801 1.81940 
-0.48509 -1.24743 1.53075 
-0.78058 -0.78322 1.71136 
-0.32714 -1.04417 1.71632 
-0.78322 -1.21842 1.42720 
-0.47488 -0.80108 1.81503 
-0.93379 -0.98107 1.51807 
-0.78088 -1.73159 0.74664 
-1.25043 -1.55424 0.45585 
-0.80484 -1.82699 0.44381 
-1.04496 -1.73617 0.29515 
-0.98091 -1.54133 0.90427 
-1.22107 -1.45079 0.75536 
0.37743 0.00632 2.13487 
-0.12140 -0.14602 2.26109 
0.25765 0.18996 2.16288 
-0.00500 0.34790 2.16171 
0.33106 -0.26061 2.09787 
-0.18372 -0.38541 2.09717 
-1.55738 0.48392 1.22174 
-1.73444 0.77372 0.75238 
-1.45334 0.78370 1.19239 
-1.54388 0.93171 0.95233 
-1.73854 0.32245 1.01613 
-1.82924 0.47072 0.77630 
-1.55754 -0.48308 1.22241 
[...]
CELL_DATA 1942
SCALARS Strain double 
LOOKUP_TABLE default 
-0.08573
-0.08902
-0.08648
-0.08675
-0.08877
-0.08808
-0.08719
-0.08761
-0.08772
-0.08714
-0.08736
-0.08777
-0.08749
-0.08796
-0.08781
-0.08749
-0.08787
-0.08741
-0.08817
-0.08777
-0.08719
-0.08796
-0.08772
-0.08757
-0.08725
-0.08900
-0.08571
-0.08684
-0.08676
-0.08913
-0.09528
-0.08061
-0.07397
-0.09702
-0.07224
-0.09562
-0.09749
-0.07315
-0.07824
-0.07497
-0.08740
-0.08762
-0.08754
-0.08747
-0.08756
-0.08745
-0.08737
-0.08761
-0.08758
-0.08768
-0.08743
-0.08764
-0.08822
-0.08794
-0.08723
-0.08751
-0.08757
-0.08805
-0.08805
-0.08724
-0.03403
-0.03444
0.06936
0.06945
0.06955
0.06947
-0.03481
-0.03420
0.06870
0.07202
0.07073
0.06788
-0.03093
-0.04075
0.07949
0.05987
0.07286
0.08582
-0.03142
-0.04046
0.06345
0.07544
0.08287
0.07623
-0.03434
-0.03396
0.06893
0.07018
0.06962
0.06853
-0.03376
-0.03387
0.06978
0.06892
0.06883
0.06984
-0.03398
-0.03394
0.06915
0.06984
0.06979
0.06927
-0.03411
-0.03405
0.06981
0.06923
0.06936
0.06973
-0.03377
-0.03388
0.06969
0.06887
0.06886
0.06976
-0.03364
-0.03364
0.06898
0.06897
0.06888
0.06895
-0.03496
-0.03537
0.06793
0.07186
0.07114
0.06894
-0.03454
-0.03447
0.07001
0.06953
0.06939
0.07002
-0.03404
-0.03388
0.06923
0.06963
0.06956
0.06914
-0.03393
-0.03461
0.07039
0.06738
0.06819
0.07128
-0.03579
-0.03617
0.06926
0.07071
0.06990
0.06970
-0.03436
-0.03430
0.06932
0.06989
0.06982
0.06947
-0.03419
-0.03380
0.06933
0.06912
0.06935
0.06925
-0.03414
-0.03409
0.06933
0.06978
0.06984
0.06942
-0.03395
-0.03391
0.06982
0.06911
0.06924
0.06977
-0.03376
-0.03381
0.06975
0.06883
0.06887
0.06982
-0.03092
-0.04921
0.08049
0.08180
0.05837
0.09274
-0.03053
-0.04171
0.06018
0.07606
0.08070
0.07590
-0.03494
-0.03439
0.06896
0.06993
0.07074
0.06844
-0.05948
-0.08903
0.17205
0.03759
-0.12576
0.11304
-0.03612
-0.03582
0.06949
0.07028
0.07063
0.06937
-0.03563
-0.03534
0.06926
0.06971
0.07021
0.06927
-0.03405
-0.03406
0.06946
0.06956
0.06957
0.06945
-0.03443
-0.03451
0.06937
0.06997
0.07002
0.06922
-0.03460
-0.03469
0.06954
0.07004
0.07007
0.06943
-0.03340
-0.03340
0.06894
0.06868
0.06876
0.06904
-0.06429
-0.04429
0.07919
0.07919
0.03353
0.03358
-0.06703
-0.04605
0.07913
0.08297
0.03606
0.03336
-0.06437
-0.04397
0.08383
0.07641
0.03152
0.03790
-0.06509
-0.04502
0.07739
0.08277
0.03744
0.03340
-0.06653
-0.04547
0.07911
0.08190
0.03527
0.03326
-0.06622
-0.04550
0.08013
0.08000
0.03438
0.03448
-0.06518
-0.04453
0.08009
0.07915
0.03346
0.03437
-0.06558
-0.04486
0.07931
0.08036
0.03462
0.03384
-0.06571
-0.04499
0.08036
0.07941
0.03394
0.03460
-0.06515
-0.04452
0.07995
0.07923
0.03350
0.03423
-0.06533
-0.04474
0.07984
0.07892
0.03356
0.03467
-0.06568
-0.04485
0.07943
0.08014
0.03436
0.03360
-0.06538
-0.04457
0.07981
0.07925
0.03335
0.03379
-0.06605
-0.04551
0.07895
0.08036
0.03508
0.03371
-0.06600
-0.04539
0.08023
0.07948
0.03408
0.03463
-0.06537
-0.04456
0.07964
0.07918
0.03330
0.03381
-0.06584
-0.04503
0.07951
0.07999
0.03427
0.03382
-0.06533
-0.04462
0.07957
0.07894
0.03326
0.03386
-0.06650
-0.04619
0.07994
0.07936
0.03422
0.03460
-0.06586
-0.04521
0.07941
0.08005
0.03448
0.03400
-0.06521
-0.04460
0.07986
0.07942
0.03375
0.03416
-0.06604
-0.04527
0.07991
0.08006
0.03434
0.03429
-0.06573
-0.04503
0.07953
0.08033
0.03460
0.03402
-0.06555
-0.04483
0.08032
0.07934
0.03384
0.03458
-0.06524
-0.04457
0.08007
0.07923
0.03356
0.03437
-0.06690
-0.04586
0.07858
0.08254
0.03585
0.03279
-0.06416
-0.04410
0.07869
0.07905
0.03337
0.03320
-0.06490
-0.04477
0.08326
0.07706
0.03256
0.03736
-0.06516
-0.04541
0.07735
0.08289
0.03733
0.03303
-0.06704
-0.04604
0.07905
0.08210
0.03548
0.03329
-0.06148
-0.04204
0.08237
0.07888
0.03476
0.03448
-0.06588
-0.04640
0.08156
0.07939
0.03392
0.03674
-0.06587
-0.04694
0.08320
0.07565
0.03176
0.03904
-0.04556
-0.03521
0.07962
0.05607
0.02345
0.03850
-0.02414
-0.18443
0.12938
0.14400
0.02658
0.02616
-0.05581
-0.03695
0.07388
0.07914
0.03373
0.02956
-0.05217
-0.03462
0.06959
0.07585
0.02895
0.02771
-0.02666
0.13867
0.13360
0.02655
0.02653
-0.06540
-0.04669
0.07737
0.08077
0.03747
0.03376
-0.06482
-0.04627
0.07542
0.08137
0.03748
0.03277
-0.06541
-0.04475
0.07987
0.07971
0.03393
0.03424
-0.06575
-0.04520
0.07982
0.08014
0.03449
0.03410
-0.06565
-0.04506
0.08009
0.07976
0.03402
0.03437
-0.06551
-0.04488
0.07985
0.07982
0.03407
0.03424
-0.06556
-0.04489
0.07978
0.07988
0.03423
0.03413
-0.06548
-0.04484
0.07979
0.07977
0.03418
0.03400
-0.06537
-0.04472
0.07966
0.07984
0.03421
0.03387
-0.06560
-0.04491
0.07988
0.07976
0.03413
0.03424
-0.06571
-0.04516
0.07966
0.08017
0.03446
0.03390
-0.06585
-0.04532
0.07978
0.08020
0.03454
0.03406
-0.06541
-0.04473
0.07918
0.07968
0.03392
0.03349
-0.06560
-0.04483
0.07916
0.08015
0.03437
0.03353
-0.06655
-0.04625
0.07998
0.07978
0.03432
0.03463
-0.06603
-0.04538
0.08025
0.07940
0.03400
0.03467
-0.06511
-0.04431
0.07956
0.07914
0.03319
0.03375
-0.06546
-0.04471
0.07917
0.08012
0.03430
0.03345
-0.06562
-0.04503
0.07934
0.07963
0.03397
0.03387
-0.06627
-0.04585
0.07982
0.07960
0.03411
0.03444
-0.06620
-0.04556
0.08026
0.07964
0.03420
0.03471
-0.06511
-0.04431
0.07933
0.07939
0.03344
0.03351
0.07174
0.07155
0.01999
0.02140
0.01748
0.01699
0.07182
0.07165
0.02010
0.02091
0.01723
0.01712
0.07215
0.07222
0.02065
0.01987
0.01698
0.01739
0.07207
0.07214
0.02072
0.01987
0.01689
0.01745
0.07624
0.07852
0.01923
0.01818
0.01758
0.01374
0.07233
0.07173
0.02017
0.02055
0.01718
0.01724
0.06976
0.06972
0.02156
0.02160
0.01827
0.01890
0.07570
0.07724
0.02331
0.02387
0.01979
0.01873
0.07458
0.07487
0.02211
0.01820
0.01393
0.01918
0.10134
0.01188
0.05611
0.02664
0.05866
0.02667
0.07491
0.07351
0.01974
0.01950
0.01500
0.01834
0.10347
0.14169
0.06322
0.02641
0.05846
0.02630
0.07411
0.07277
0.01737
0.02237
0.01718
0.01536
0.07175
0.07151
0.02033
0.02060
0.01729
0.01732
0.07125
0.07194
0.01964
0.02087
0.01799
0.01608
0.07139
0.07151
0.02071
0.02087
0.01762
0.01758
0.07242
0.07248
0.01988
0.02057
0.01752
0.01674
0.07237
0.07237
0.02026
0.02037
0.01727
0.01716
0.07223
0.07214
0.02013
0.02081
0.01761
0.01684
0.07187
0.07193
0.02059
0.02053
0.01732
0.01742
0.07158
0.07145
0.02083
0.02058
0.01746
0.01755
0.07196
0.07203
0.02056
0.02043
0.01722
0.01742
0.07213
0.07201
0.02018
0.02074
0.01751
0.01688
0.07234
0.07241
0.01988
0.02048
0.01743
0.01678
0.07179
0.07251
0.01937
0.02056
0.01778
0.01579
0.07161
0.07175
0.02002
0.02098
0.01781
0.01687
0.07135
0.07145
0.01945
0.02092
0.01791
0.01628
0.07155
0.07168
0.02011
0.02088
0.01777
0.01698
0.07298
0.07357
0.02075
0.01811
0.01532
0.01661
0.07250
0.07246
0.02033
0.02024
0.01696
0.01706
0.07197
0.07234
0.02050
0.01980
0.01693
0.01712
0.07219
0.07226
0.02012
0.02048
0.01744
0.01698
0.07199
0.07192
0.02019
0.02052
0.01716
0.01727
0.07166
0.07174
0.02050
0.02083
0.01756
0.01736
0.06997
0.07094
0.02001
0.02134
0.01860
0.01629
0.07108
0.07137
0.02142
0.01987
0.01691
0.01768
0.07521
0.07771
0.01891
0.01870
0.01893
0.01268
0.07373
0.07628
0.02222
0.01529
0.01497
0.01565
0.07210
0.07220
0.02064
0.02030
0.01704
0.01742
0.07205
0.07217
0.02060
0.01996
0.01700
0.01739
0.07169
0.07160
0.01982
0.02108
0.01737
0.01691
0.07237
0.07237
0.02043
0.02025
0.01715
0.01731
0.07200
0.07205
0.02059
0.02042
0.01720
0.01743
0.07149
0.07138
0.02084
0.02071
0.01759
0.01761
0.07184
0.07192
0.02057
0.02056
0.01735
0.01742
0.07221
0.07213
0.02005
0.02084
0.01763
0.01676
0.07156
0.07190
0.02049
0.02039
0.01733
0.01712
0.07241
0.07249
0.01977
0.02064
0.01754
0.01666
0.07774
0.08146
0.02242
0.02337
0.02032
0.01315
0.12503
0.03740
0.10044
0.02598
0.07456
0.02586
0.07600
0.07439
0.01843
0.01967
0.01433
0.01760
0.09360
-0.15719
0.06860
0.02584
0.05883
0.02598
0.07334
0.07233
0.01726
0.02181
0.01651
0.01606
0.07095
0.07141
0.02025
0.02052
0.01743
0.01688
0.07368
0.07349
0.01906
0.01879
0.01558
0.01576
0.07153
0.07142
0.02124
0.01922
0.01576
0.01823
0.07142
0.07121
0.02111
0.01947
0.01598
0.01819
0.07257
0.07258
0.02010
0.02029
0.01702
0.01680
0.07156
0.07141
0.02105
0.02007
0.01694
0.01792
0.07181
0.07167
0.02109
0.01982
0.01670
0.01793
0.07050
0.07042
-0.00678
-0.00663
0.07386
-0.00372
-0.00575
0.06828
-0.00810
-0.00345
0.07355
-0.00321
-0.00724
-0.00411
-0.00609
0.07133
0.07120
-0.00542
-0.00534
0.07052
-0.00639
-0.00563
0.07163
-0.00526
-0.00603
0.07060
-0.00592
-0.00525
-0.00636
-0.00577
0.07075
0.07064
-0.00609
-0.00586
0.07132
-0.00554
-0.00617
0.07121
0.07059
-0.00640
-0.00602
-0.00531
-0.00591
-0.00589
-0.00540
0.07109
0.07050
-0.00656
-0.00599
0.07065
0.07122
-0.00557
-0.00605
0.07069
-0.00627
-0.00635
-0.00574
-0.00546
-0.00550
-0.00599
0.07114
0.07073
-0.00617
-0.00580
0.07131
-0.00542
-0.00550
0.07157
-0.00528
-0.00585
0.07058
-0.00603
-0.00531
-0.00627
-0.00561
0.07001
0.07369
-0.00380
-0.00630
0.07035
-0.00686
-0.00709
0.06827
-0.00775
-0.00363
0.07351
-0.00348
-0.00768
-0.00398
-0.00607
0.06780
0.08878
-0.00719
-0.01561
0.06569
-0.00387
-0.00270
0.05348
-0.01156
0.00514
0.10186
-0.01621
-0.03925
-0.02752
-0.03125
0.09293
0.06235
-0.02275
-0.00970
0.09977
0.05701
-0.03085
-0.01048
-0.02865
-0.02918
0.06491
-0.00016
-0.00590
0.00147
-0.00892
0.07106
0.07104
-0.00588
-0.00573
0.07127
-0.00550
-0.00577
0.07101
-0.00585
-0.00558
0.07113
-0.00577
-0.00573
-0.00563
-0.00572
0.07113
0.07093
-0.00579
-0.00582
0.07101
0.07101
-0.00577
-0.00595
-0.00571
-0.00561
0.07132
-0.00553
-0.00595
-0.00546
-0.00581
0.07039
0.07117
-0.00582
-0.00652
0.07141
-0.00553
-0.00630
0.07094
-0.00561
-0.00537
0.07055
-0.00589
-0.00528
-0.00660
-0.00612
0.07044
0.07134
-0.00565
-0.00639
0.07119
-0.00572
-0.00627
0.07076
-0.00582
-0.00543
0.07076
-0.00570
-0.00527
-0.00638
-0.00631
0.05605
0.05602
0.07683
0.07688
0.05638
0.05648
0.07747
0.07736
-0.01472
-0.01556
0.04951
-0.01479
-0.01573
0.04951
-0.01647
0.04962
-0.01648
0.04970
0.05793
0.05507
0.07646
0.08016
0.05549
0.05773
0.07781
0.07589
-0.01498
-0.01666
0.05028
-0.01460
-0.01718
0.04706
-0.01604
0.04926
-0.01554
0.05208
0.05153
0.05839
0.08174
0.07476
0.05862
0.06761
0.08026
0.07123
-0.01929
-0.01619
0.05065
-0.00163
-0.01323
0.04160
-0.01823
0.05350
-0.02788
0.03197
0.05638
0.05420
0.07732
0.07924
0.07375
0.05172
0.06323
0.07993
-0.00317
-0.01494
0.04168
-0.01803
-0.01612
0.05228
-0.03092
0.03334
-0.01393
0.04814
0.05687
0.05537
0.07654
0.07852
0.05583
0.05606
0.07685
0.07674
-0.01472
-0.01635
0.04969
-0.01421
-0.01634
0.04805
-0.01590
0.04940
-0.01564
0.04942
0.05563
0.05660
0.07752
0.07654
0.05654
0.05568
0.07675
0.07758
-0.01441
-0.01571
0.04916
-0.01596
0.04976
-0.01429
-0.01560
0.04997
-0.01580
0.04901
0.05669
0.05602
0.07680
0.07769
0.05601
0.05650
0.07740
0.07706
-0.01438
-0.01581
0.04995
-0.01454
-0.01598
0.04945
-0.01574
0.04922
-0.01589
0.04987
0.05611
0.05665
0.07768
0.07690
0.05646
0.05608
0.07715
0.07732
-0.01465
-0.01610
0.04955
-0.01449
-0.01595
0.04988
-0.01599
0.04985
-0.01584
0.04928
0.05565
0.05648
0.07740
0.07660
0.05651
0.05566
0.07660
0.07754
-0.01438
-0.01568
0.04909
-0.01590
0.04975
-0.01434
-0.01564
0.04986
-0.01585
0.04904
0.05553
0.05584
0.07698
0.07666
0.05556
0.05586
0.07683
0.07662
-0.01412
-0.01564
0.04865
-0.01411
-0.01551
0.04917
-0.01555
0.04894
-0.01555
0.04925
0.05793
0.05569
0.07592
0.07829
0.05496
0.05847
0.07994
0.07693
-0.01447
-0.01578
0.05160
-0.01626
0.04697
-0.01656
-0.01730
0.04996
-0.01891
0.05020
0.05630
0.05684
0.07774
0.07704
0.05674
0.05623
0.07726
0.07768
-0.01505
-0.01651
0.04977
-0.01635
0.05006
-0.01499
-0.01644
0.05017
-0.01629
0.04945
0.05638
0.05596
0.07698
0.07740
0.05596
0.05637
0.07728
0.07684
-0.01461
-0.01622
0.04960
-0.01439
-0.01593
0.04928
-0.01584
0.04948
-0.01567
0.04975
0.05502
0.05673
0.07742
0.07574
0.05761
0.05459
0.07591
0.07948
-0.01492
-0.01595
0.04883
-0.01402
-0.01533
0.05021
-0.01663
0.05028
-0.01684
0.04648
0.05674
0.05680
0.07732
0.07694
0.05530
0.05824
0.07956
0.07631
-0.01612
-0.01735
0.05053
-0.01738
0.04840
-0.01685
-0.01735
0.05095
-0.01980
0.04935
0.05669
0.05623
0.07697
0.07754
0.05616
0.05659
0.07759
0.07720
-0.01484
-0.01629
0.05009
-0.01617
0.04937
-0.01486
-0.01629
0.04970
-0.01618
0.04986
0.05626
0.05628
0.07724
0.07735
0.05585
0.05578
0.07645
0.07670
-0.01446
-0.01618
0.04939
-0.01537
0.04932
-0.01461
-0.01631
0.04957
-0.01554
0.04937
0.05668
0.05619
0.07701
0.07768
0.05617
0.05651
0.07739
0.07719
-0.01456
-0.01600
0.04993
-0.01590
0.04941
-0.01467
-0.01612
0.04960
-0.01602
0.04987
0.05600
0.05667
0.07767
0.07680
0.05649
0.05596
0.07702
0.07738
-0.01450
-0.01594
0.04943
-0.01435
-0.01579
0.04993
-0.01586
0.04986
-0.01571
0.04917
0.05568
0.05659
0.07750
0.07659
0.05651
0.05560
0.07659
0.07756
-0.01437
-0.01573
0.04914
-0.01427
-0.01562
0.04997
-0.01584
0.04972
-0.01573
0.04896
0.05199
0.05675
0.08034
0.07663
0.04796
0.08897
0.08371
0.04865
-0.02220
-0.01630
0.05410
-0.01500
0.04790
0.00001
-0.01444
0.03892
-0.05104
0.02020
0.05354
0.05224
0.07801
0.07878
0.07335
0.04980
0.05634
0.07788
-0.00032
-0.01611
0.03228
-0.01925
-0.01581
0.05167
-0.03243
0.03071
-0.01402
0.04841
0.05712
0.05545
0.07653
0.07885
0.05584
0.05654
0.07711
0.07665
-0.01507
-0.01674
0.04985
-0.01615
0.04942
-0.01484
-0.01726
0.04776
-0.01608
0.05015
-0.26614
-0.09214
0.11413
0.22367
-0.04970
-0.01477
-0.05761
-0.01171
-0.20938
0.01871
-0.28309
0.05640
0.13703
0.00556
0.05802
0.05599
0.07658
0.07872
0.05646
0.05703
0.07756
0.07721
-0.01659
-0.01875
0.05015
-0.01740
0.05024
-0.01665
-0.01850
0.04877
-0.01758
0.05078
0.05744
0.05573
0.07601
0.07850
0.05628
0.05669
0.07719
0.07708
-0.01594
-0.01835
0.04942
-0.01680
0.04987
-0.01630
-0.01803
0.04869
-0.01727
0.05057
0.05636
0.05626
0.07719
0.07730
0.05626
0.05637
0.07730
0.07718
-0.01453
-0.01592
0.04967
-0.01594
0.04957
-0.01453
-0.01592
0.04956
-0.01593
0.04969
0.05670
0.05604
0.07709
0.07769
0.05617
0.05684
0.07771
0.07690
-0.01502
-0.01631
0.04998
-0.01649
0.04965
-0.01494
-0.01625
0.04923
-0.01639
0.05022
0.05678
0.05622
0.07724
0.07773
0.05636
0.05690
0.07777
0.07713
-0.01517
-0.01646
0.05008
-0.01664
0.04979
-0.01514
-0.01643
0.04945
-0.01661
0.05025
0.05536
0.05587
0.07683
0.07650
0.05563
0.05560
0.07657
0.07677
-0.01382
-0.01526
0.04854
-0.01529
0.04877
-0.01393
-0.01536
0.04926
-0.01534
0.04899
-0.01602
-0.01809
-0.01631
-0.01783
0.08502
0.08508
-0.01894
-0.01746
0.08972
-0.01440
-0.01547
0.08364
-0.01793
-0.01786
0.08750
-0.01784
-0.01686
-0.01782
-0.01681
0.08585
0.08572
-0.01675
-0.01706
0.08498
-0.01726
-0.01738
0.08605
-0.01720
-0.01676
0.08507
-0.01706
-0.01736
-0.01664
-0.01710
0.08549
0.08396
-0.01715
-0.01771
0.08601
-0.01709
-0.01808
-0.01677
-0.01762
0.08584
0.08518
-0.01693
-0.01828
-0.01685
-0.01750
0.08533
0.08512
-0.01761
-0.01704
-0.01728
-0.01751
0.08551
0.08580
-0.01669
-0.01806
0.08443
-0.01693
-0.01756
-0.01678
-0.01724
0.08560
0.08524
-0.01768
-0.01692
0.08579
-0.01739
-0.01720
0.08604
-0.01704
-0.01679
0.08501
-0.01811
-0.01595
-0.01846
-0.01804
0.08452
0.08865
-0.01613
-0.01826
0.08496
-0.01501
-0.01568
0.08439
-0.01798
-0.01851
0.08774
-0.01759
-0.01817
0.00928
-0.06100
0.08899
0.04609
-0.02135
-0.01778
0.08770
-0.02354
-0.01096
0.08734
0.04204
-0.10162
-0.01201
0.01824
-0.07291
-0.01272
-0.02077
0.03756
0.08619
0.02621
-0.07675
-0.01207
-0.02105
0.01865
0.08514
-0.02012
-0.01914
0.08772
-0.01693
-0.01744
-0.01707
-0.01714
0.08567
0.08548
-0.01739
-0.01729
0.08597
-0.01730
-0.01706
0.08564
-0.01718
-0.01714
0.08560
-0.01716
-0.01718
-0.01700
-0.01739
0.08558
0.08555
-0.01704
-0.01716
-0.01690
-0.01753
0.08545
0.08565
-0.01735
-0.01751
0.08606
-0.01702
-0.01721
-0.01694
-0.01821
0.08504
0.08537
-0.01718
-0.01773
0.08597
-0.01838
-0.01661
0.08529
-0.01761
-0.01664
0.08504
-0.01712
-0.01719
-0.01702
-0.01786
0.08513
0.08601
-0.01723
-0.01777
0.08510
-0.01811
-0.01667
0.08511
-0.01783
-0.01661
0.08529
0.04823
0.04838
0.04833
0.04831
0.04838
0.04806
0.05180
0.04532
0.05010
0.08233
0.00356
0.00518
0.04790
0.04967
0.04761
0.04784
0.04877
0.04861
0.04861
0.04826
0.04836
0.04789
0.04851
0.04866
0.04805
0.04720
0.04926
0.04808
0.04800
0.04888
0.04855
0.04820
0.04788
0.04854
0.04807
0.04856
0.04613
0.04859
0.05081
0.04831
0.04825
0.04816
0.04862
0.04840
0.04825
0.04779
0.04861
0.04877
0.09536
-0.01314
-0.01344
0.04872
0.04904
0.04707
0.04962
0.04739
0.04724
0.04899
0.04784
0.04809
-0.22844
-0.18112
-0.07189
0.05009
0.27754
-0.08280
-0.09968
-0.04392
-0.08557
-0.07713
0.01603
-0.23726
-0.24777
-0.26206
0.19083
-0.03564
-0.10247
0.83418
-0.10022
0.04173
-0.21007
-0.10361
-0.19808
-0.03503
-0.18008
-0.18576
0.10000
