# vtk DataFile Version 3.0
Point representing Sub_cellular elem model
ASCII

DATASET UNSTRUCTURED_GRID
POINTS 701 float
0.00058 1.73046 0.82780 
0.00717 1.73662 -1.32387 
1.74372 1.07066 -0.23921 
1.74401 -1.08043 -0.23952 
0.00592 -1.74769 -1.32199 
-0.00373 -1.74155 0.82615 
1.06833 -0.00341 1.51765 
-1.07605 -0.00225 1.49559 
1.08486 -0.00603 -1.98237 
-1.06865 -0.00558 -1.99060 
-1.73865 1.07313 -0.25421 
-1.74026 -1.08044 -0.25342 
0.00426 2.04711 -0.24811 
1.02556 1.65194 0.39191 
0.62757 1.01164 1.42958 
-0.63196 1.01666 1.41408 
-1.02316 1.65504 0.38178 
1.03236 1.65510 -0.87761 
0.64300 1.02039 -1.90430 
-0.62622 1.02099 -1.90911 
-1.02113 1.65682 -0.88596 
2.05481 -0.00430 -0.23797 
1.65419 0.62957 0.78828 
1.66755 0.62865 -1.26607 
1.03139 -1.66617 -0.87648 
1.02527 -1.66339 0.38938 
1.65746 -0.63517 0.78428 
1.66729 -0.63983 -1.26551 
0.00167 -2.05726 -0.24691 
0.64240 -1.03222 -1.90296 
-0.62686 -1.03229 -1.90782 
-1.02289 -1.66645 -0.88436 
0.63218 -1.03133 1.40986 
-0.63520 -1.02239 1.41554 
-1.02691 -1.66254 0.38294 
0.01904 0.50669 2.21480 
-1.65858 0.63080 0.77088 
-1.66062 -0.63605 0.77132 
0.00917 -0.00602 -2.29693 
-1.65560 0.63003 -1.27923 
-1.65624 -0.63962 -1.27864 
-2.05100 -0.00337 -0.25513 
0.00243 1.96357 0.32312 
0.52298 1.76105 0.64946 
0.32099 1.43459 1.17379 
-0.32244 1.43606 1.16909 
-0.52103 1.76304 0.64400 
0.00587 1.96683 -0.81937 
0.53040 1.76638 -1.14052 
0.33170 1.44253 -1.66413 
-0.31576 1.44294 -1.66659 
-0.51715 1.76724 -1.14464 
1.44840 1.41170 0.08316 
1.45244 1.41268 -0.56454 
1.97357 0.56646 -0.23817 
1.76970 0.88938 0.28500 
1.77663 0.88950 -0.76286 
1.97390 -0.57545 -0.23845 
1.45205 -1.42331 -0.56418 
1.44883 -1.42200 0.08181 
1.77119 -0.89763 0.28323 
1.77648 -0.89992 -0.76251 
0.52916 -1.77754 -1.13883 
0.00407 -1.97744 -0.81761 
0.33079 -1.45403 -1.66240 
-0.31673 -1.45415 -1.66487 
-0.51866 -1.77775 -1.14283 
0.52068 -1.77304 0.64688 
-0.00110 -1.97376 0.32320 
0.31845 -1.44903 1.16675 
-0.32880 -1.44712 1.16650 
-0.52579 -1.77212 0.64409 
0.89018 0.51498 1.55082 
1.41016 0.32009 1.21236 
1.41441 -0.32292 1.20629 
0.90075 -0.52922 1.52875 
0.55705 -0.01294 1.79801 
-0.89733 0.51954 1.52425 
-0.90027 -0.52781 1.52342 
-0.56883 -0.00903 1.75910 
-1.41736 0.32016 1.19328 
-1.41933 -0.32495 1.19331 
0.90371 0.51741 -2.01350 
1.42640 0.31762 -1.68822 
1.42623 -0.32939 -1.68783 
0.90340 -0.52945 -2.01278 
0.58042 -0.00609 -2.21384 
-0.88685 0.51800 -2.02031 
-0.88717 -0.52930 -2.01963 
-0.56263 -0.00585 -2.21817 
-1.41194 0.31849 -1.69921 
-1.41218 -0.32899 -1.69885 
-1.44501 1.41469 0.06992 
-1.44407 1.41501 -0.57671 
-1.76940 0.89168 0.26869 
-1.76787 0.89144 -0.77741 
-1.96933 0.56829 -0.25493 
-1.44589 -1.42349 -0.57546 
-1.44752 -1.42180 0.07102 
-1.77121 -0.89772 0.26923 
-1.76897 -0.89989 -0.77669 
-1.97019 -0.57519 -0.25458 
0.55897 1.94385 0.06009 
-0.55281 1.94558 0.05502 
0.56149 1.94565 -0.55115 
-0.55150 1.94689 -0.55580 
0.89496 1.38321 0.96500 
1.05405 1.75591 -0.24294 
1.38996 1.19796 0.66102 
0.00041 1.03927 1.52481 
1.19696 0.89204 1.15864 
0.29623 0.53494 1.76654 
-0.89730 1.38644 0.95337 
-0.31216 0.54589 1.73862 
-1.20314 0.89469 1.14063 
-1.04688 1.75835 -0.25213 
-1.39187 1.20101 0.64611 
0.90810 1.38910 -1.44938 
1.40149 1.20026 -1.14166 
0.00874 1.04507 -2.00829 
1.21396 0.89445 -1.63631 
0.31468 0.55036 -2.19503 
-0.89366 1.39022 -1.45637 
-0.29658 0.55057 -2.19733 
-1.19914 0.89556 -1.64564 
-1.38948 1.20194 -1.15278 
1.94924 0.30184 0.31817 
1.95619 0.30036 -0.79487 
1.94998 -0.30823 0.31746 
1.95616 -0.31058 -0.79474 
1.75732 -0.00152 0.81109 
1.76912 -0.00559 -1.28980 
1.05306 -1.76686 -0.24295 
1.40094 -1.21140 -1.14068 
0.55979 -1.95650 -0.54999 
0.90728 -1.40056 -1.44790 
1.39279 -1.20782 0.65615 
0.55678 -1.95480 0.05995 
0.89710 -1.39642 0.95715 
1.20370 -0.90203 1.14712 
1.21347 -0.90612 -1.63527 
-0.55379 -1.95657 -0.55413 
-0.55616 -1.95452 0.05616 
0.00813 -1.05677 -2.00688 
0.31436 -0.56240 -2.19422 
-0.89478 -1.40082 -1.45485 
-0.29689 -0.56236 -2.19654 
-1.19983 -0.90617 -1.64463 
-1.04946 -1.76678 -0.25067 
-1.39069 -1.21163 -1.15161 
-0.00659 -1.05573 1.51253 
0.31567 -0.56691 1.72432 
-0.90226 -1.39371 0.95455 
-0.29091 -0.54228 1.74352 
-1.20689 -0.90104 1.14162 
-1.39517 -1.20728 0.64709 
-1.76161 -0.00234 0.79477 
-1.94984 0.30275 0.30085 
-1.95047 -0.30826 0.30101 
-1.75765 -0.00475 -1.30376 
-1.94797 0.30170 -0.81076 
-1.94834 -0.30996 -0.81053 
0.00151 1.86350 0.58661 
0.26099 1.76237 0.74928 
0.16042 1.59958 1.01008 
-0.16070 1.60022 1.00813 
-0.25935 1.76338 0.74652 
0.00656 1.86834 -1.08283 
0.26806 1.76834 -1.24294 
0.16900 1.60688 -1.50397 
-0.15376 1.60711 -1.50519 
-0.25415 1.76876 -1.24495 
1.61334 1.25123 -0.07843 
1.61542 1.25155 -0.40129 
1.87515 0.82971 -0.23857 
1.77369 0.99066 0.02216 
1.77712 0.99085 -0.50020 
1.87550 -0.83909 -0.23893 
1.61540 -1.26178 -0.40131 
1.61375 -1.26115 -0.07915 
1.77447 -0.99981 0.02124 
1.77714 -1.00091 -0.50013 
0.26679 -1.77947 -1.24111 
0.00506 -1.87919 -1.08096 
0.16792 -1.61818 -1.50214 
-0.15488 -1.61825 -1.50337 
-0.25554 -1.77959 -1.24309 
0.25755 -1.77404 0.74713 
-0.00247 -1.87405 0.58589 
0.15661 -1.61200 1.00652 
-0.16588 -1.61149 1.00589 
-0.26406 -1.77354 0.74575 
0.99241 0.25397 1.55275 
1.24986 0.15784 1.38058 
1.25373 -0.16042 1.37505 
1.00103 -0.26359 1.53891 
0.82642 -0.00773 1.66611 
-1.00098 0.25701 1.52548 
-1.00642 -0.26272 1.52319 
-0.83505 -0.00335 1.63760 
-1.25784 0.15772 1.35969 
-1.25999 -0.16173 1.35900 
1.00501 0.25490 -2.01467 
1.26559 0.15530 -1.85256 
1.26550 -0.16725 -1.85235 
1.00486 -0.26698 -2.01431 
0.84386 -0.00607 -2.11458 
-0.98839 0.25543 -2.02227 
-0.98855 -0.26667 -2.02194 
-0.82673 -0.00573 -2.12093 
-1.25016 0.15593 -1.86223 
-1.25027 -0.16680 -1.86204 
-1.60917 1.25395 -0.09268 
-1.60870 1.25400 -0.41505 
-1.77094 0.99315 0.00647 
-1.77016 0.99308 -0.51511 
-1.87052 0.83194 -0.25461 
-1.61045 -1.26188 -0.41401 
-1.61119 -1.26112 -0.09171 
-1.77263 -0.99979 0.00713 
-1.77150 -1.00093 -0.51435 
-1.87177 -0.83902 -0.25406 
0.00336 2.02564 0.04205 
0.00510 2.02727 -0.53827 
0.28831 2.02051 -0.09843 
-0.28081 2.02135 -0.10095 
0.28936 2.02138 -0.39524 
-0.28006 2.02210 -0.39766 
0.78052 1.72407 0.52922 
1.25054 1.54678 0.24163 
0.80649 1.81990 0.22619 
0.97827 1.53317 0.68897 
1.04689 1.72892 0.07910 
1.21865 1.44290 0.54173 
0.47915 1.23754 1.31424 
0.76681 0.77072 1.50884 
0.77562 1.20865 1.21351 
0.32178 1.03314 1.50206 
0.92245 0.97074 1.30917 
0.46546 0.78720 1.61254 
-0.48175 1.24045 1.30521 
-0.77296 0.77643 1.48642 
-0.32300 1.03714 1.49270 
-0.77959 1.21217 1.20051 
-0.46982 0.79600 1.59234 
-0.92836 0.97456 1.29143 
-0.77835 1.72679 0.52125 
-1.24774 1.54994 0.22974 
-0.80204 1.82242 0.21860 
-0.97834 1.53639 0.67820 
-1.04204 1.73174 0.06948 
-1.21847 1.44623 0.52909 
0.78788 1.72841 -1.01757 
1.25620 1.54874 -0.72501 
0.81094 1.82253 -0.71460 
1.05031 1.73052 -0.56494 
0.98841 1.53778 -1.17433 
1.22798 1.44600 -1.02480 
0.49137 1.24514 -1.79909 
0.78187 0.77528 -1.97650 
0.79082 1.21572 -1.69516 
0.33059 1.03965 -1.98110 
0.93936 0.97546 -1.78590 
0.47915 0.79938 -2.07180 
-0.47492 1.24567 -1.80276 
-0.76496 0.77589 -1.98238 
-0.31328 1.03995 -1.98353 
-0.77509 1.21657 -1.70115 
-0.46158 0.79976 -2.07535 
-0.92343 0.97633 -1.79303 
-0.77552 1.72970 -1.02381 
-1.24632 1.55081 -0.73536 
-0.80031 1.82410 -0.72124 
-1.04099 1.73258 -0.57373 
-0.97547 1.53919 -1.18210 
-1.21626 1.44774 -1.03461 
2.03428 0.28563 -0.23797 
2.03447 -0.29433 -0.23813 
2.02715 0.14447 0.04668 
2.03062 0.14358 -0.52280 
2.02737 -0.15198 0.04649 
2.03065 -0.15308 -0.52280 
1.72953 0.76783 0.54304 
1.54645 0.47885 1.01345 
1.53724 0.92438 0.74310 
1.44343 0.77622 0.98420 
1.82382 0.46633 0.56703 
1.73041 0.31894 0.80680 
1.73988 0.76758 -1.02087 
1.56194 0.47709 -1.49084 
1.55020 0.92526 -1.22185 
1.45915 0.77672 -1.46213 
1.83412 0.46473 -1.04441 
1.74319 0.31616 -1.28476 
1.25549 -1.55964 -0.72426 
0.78674 -1.73955 -1.01612 
1.04928 -1.74147 -0.56425 
1.22724 -1.45711 -1.02370 
0.80964 -1.83353 -0.71346 
0.98750 -1.54903 -1.17295 
1.25077 -1.55763 0.23961 
0.77935 -1.73597 0.52646 
1.04609 -1.74002 0.07806 
1.21995 -1.45396 0.53783 
0.80501 -1.83122 0.22498 
0.97897 -1.54525 0.68428 
1.73190 -0.77489 0.54022 
1.55041 -0.48291 1.00825 
1.82554 -0.47189 0.56519 
1.73225 -0.32265 0.80470 
1.54089 -0.93229 0.73809 
1.44862 -0.78326 0.97687 
1.73964 -0.77839 -1.02036 
1.56170 -0.48859 -1.49033 
1.83398 -0.47550 -1.04409 
1.74305 -0.32734 -1.28448 
1.54980 -0.93643 -1.22105 
1.45876 -0.78819 -1.46132 
0.00293 -2.03762 -0.53673 
0.00031 -2.03571 0.04276 
0.28722 -2.03196 -0.39406 
0.28580 -2.03104 -0.09777 
-0.28255 -2.03195 -0.39614 
-0.28380 -2.03094 -0.09977 
0.49062 -1.25681 -1.79752 
0.78142 -0.78723 -1.97545 
0.79010 -1.22737 -1.69369 
0.93880 -0.98724 -1.78468 
0.32997 -1.05144 -1.97970 
0.47868 -0.81133 -2.07068 
-0.47573 -1.25693 -1.80122 
-0.76544 -0.78721 -1.98137 
-0.31390 -1.05149 -1.98215 
-0.77595 -1.22755 -1.69971 
-0.46204 -0.81133 -2.07426 
-0.92410 -0.98732 -1.79186 
-0.77717 -1.73982 -1.02209 
-1.24813 -1.55990 -0.73391 
-0.80234 -1.83371 -0.71955 
-0.97689 -1.54935 -1.18052 
-1.04313 -1.74163 -0.57216 
-1.21774 -1.45741 -1.03319 
0.47949 -1.25493 1.30144 
0.77601 -0.79012 1.48408 
0.77927 -1.22403 1.20094 
0.92958 -0.98544 1.29278 
0.32073 -1.05503 1.48316 
0.47130 -0.81424 1.58258 
-0.48825 -1.24973 1.30360 
-0.77541 -0.78438 1.48658 
-0.32937 -1.04667 1.48843 
-0.78447 -1.21914 1.20183 
-0.46730 -0.79840 1.59438 
-0.93232 -0.98154 1.29254 
-0.78274 -1.73492 0.52203 
-1.25085 -1.55714 0.23093 
-0.80568 -1.83065 0.21970 
-1.04517 -1.73962 0.07079 
-0.98277 -1.54372 0.67931 
-1.22211 -1.45306 0.53022 
0.24993 -0.43257 1.91262 
0.11436 -0.45124 2.11729 
0.45260 0.21920 2.16414 
0.26583 -0.38267 2.84117 
-0.24748 -0.41627 2.00946 
-0.32906 -0.34346 2.25692 
-1.55257 0.47938 0.99540 
-1.73170 0.76970 0.52618 
-1.44907 0.77806 0.96644 
-1.54076 0.92669 0.72648 
-1.73498 0.31901 0.78958 
-1.82647 0.46727 0.54977 
[...]
CELL_DATA 2095
SCALARS Strain double 
LOOKUP_TABLE default 
-0.08549
-0.09079
-0.08530
-0.08778
-0.08923
-0.08806
-0.08703
-0.08799
-0.08742
-0.08742
-0.08802
-0.08803
-0.08876
-0.08707
-0.08712
-0.08752
-0.08712
-0.08869
-0.08820
-0.08870
-0.08709
-0.08844
-0.08789
-0.08769
-0.08715
-0.08734
-0.08905
-0.09064
-0.08764
-0.08917
-0.10149
-0.07428
-0.06473
-0.10499
-0.05754
-0.09842
-0.10018
-0.07125
-0.07811
-0.07322
-0.08770
-0.08749
-0.08758
-0.08766
-0.08737
-0.08732
-0.08733
-0.08768
-0.08767
-0.08770
-0.08741
-0.08792
-0.08838
-0.08792
-0.08734
-0.08737
-0.08803
-0.08812
-0.08845
-0.08724
-0.03403
-0.03439
0.06965
0.06854
0.06860
0.06980
-0.03717
-0.03628
0.06895
0.07369
0.07186
0.06771
-0.02430
-0.03943
0.08815
0.04581
0.06618
0.10176
-0.03488
-0.04452
0.06063
0.07905
0.08479
0.07412
-0.03474
-0.03431
0.06829
0.07044
0.06949
0.06785
-0.03357
-0.03373
0.06879
0.06952
0.06932
0.06888
-0.03450
-0.03443
0.06936
0.07002
0.07001
0.06941
-0.03384
-0.03382
0.06980
0.06894
0.06907
0.06967
-0.03409
-0.03419
0.07005
0.06874
0.06873
0.07009
-0.03500
-0.03470
0.07029
0.06854
0.06802
0.06991
-0.03242
-0.03190
0.06362
0.07227
0.07263
0.06370
-0.03401
-0.03406
0.06915
0.06963
0.06940
0.06925
-0.03354
-0.03354
0.06798
0.06935
0.06943
0.06830
-0.03508
-0.03470
0.06668
0.06964
0.06919
0.06586
-0.03418
-0.03315
0.06507
0.06901
0.07069
0.06366
-0.03471
-0.03453
0.06976
0.06941
0.06939
0.06983
-0.03557
-0.03562
0.06982
0.06893
0.06910
0.06984
-0.03436
-0.03432
0.06911
0.06999
0.07000
0.06927
-0.03393
-0.03387
0.06985
0.06892
0.06912
0.06976
-0.03358
-0.03363
0.06956
0.06832
0.06825
0.06975
-0.03166
-0.03560
0.06252
0.07201
0.06519
0.06472
-0.02749
-0.05302
0.04692
0.08430
0.10289
0.07624
-0.03657
-0.03567
0.06993
0.06920
0.07017
0.06900
-0.18466
0.00805
-0.04433
-0.12859
0.18439
-0.03448
-0.03478
0.06976
0.06764
0.06757
0.06976
-0.03437
-0.03447
0.06885
0.06817
0.06815
0.06877
-0.03391
-0.03397
0.06946
0.06938
0.06941
0.06945
-0.03451
-0.03454
0.06916
0.07029
0.07034
0.06892
-0.03484
-0.03500
0.06946
0.07026
0.07035
0.06935
-0.03349
-0.03346
0.06915
0.06824
0.06829
0.06911
-0.06426
-0.04432
0.07939
0.07780
0.03214
0.03369
-0.06918
-0.04840
0.07958
0.08358
0.03648
0.03413
-0.06209
-0.04023
0.08465
0.07262
0.02722
0.03777
-0.06673
-0.04830
0.07491
0.08512
0.04209
0.03248
-0.06691
-0.04582
0.07779
0.08265
0.03526
0.03199
-0.06615
-0.04542
0.07946
0.08038
0.03467
0.03387
-0.06499
-0.04432
0.07938
0.07946
0.03375
0.03367
-0.06606
-0.04537
0.07959
0.08042
0.03478
0.03409
-0.06541
-0.04470
0.08031
0.07909
0.03357
0.03447
-0.06547
-0.04486
0.08036
0.07903
0.03340
0.03461
-0.06644
-0.04636
0.08121
0.07777
0.03325
0.03651
-0.06579
-0.04482
0.08046
0.07898
0.03320
0.03434
-0.06691
-0.04610
0.08072
0.07937
0.03354
0.03468
-0.06472
-0.04365
0.07678
0.08087
0.03464
0.03093
-0.06528
-0.04475
0.07909
0.07953
0.03410
0.03356
-0.06571
-0.04527
0.07796
0.07997
0.03434
0.03288
-0.06505
-0.04437
0.07815
0.07943
0.03368
0.03284
-0.06695
-0.04623
0.07786
0.08070
0.03465
0.03191
-0.06631
-0.04549
0.07731
0.08061
0.03420
0.03117
-0.06660
-0.04574
0.08004
0.07955
0.03403
0.03454
-0.06506
-0.04438
0.07986
0.07885
0.03290
0.03400
-0.06677
-0.04630
0.08006
0.08000
0.03435
0.03455
-0.06592
-0.04523
0.07920
0.08048
0.03478
0.03385
-0.06562
-0.04485
0.08043
0.07901
0.03361
0.03465
-0.06511
-0.04441
0.07999
0.07876
0.03293
0.03430
-0.06513
-0.04474
0.07777
0.07648
0.03133
0.03203
-0.06712
-0.04646
0.07804
0.07994
0.03432
0.03275
-0.07023
-0.05073
0.07623
0.08190
0.03721
0.03132
-0.06473
-0.04245
0.07809
0.07753
0.03002
0.02932
-0.06781
-0.04751
0.08013
0.07827
0.03294
0.03486
-0.06932
-0.04702
0.08419
0.09536
0.04756
0.03800
-0.05906
-0.04152
0.08518
0.07029
0.02678
0.04085
-0.05683
-0.04169
0.07604
0.06917
0.02803
0.03698
-0.05675
-0.02848
0.06781
0.08383
0.02761
0.01522
-0.00409
0.13513
0.14106
0.16394
0.02472
0.02614
-0.06290
-0.04413
0.07911
0.08129
0.03210
0.03404
-0.05196
-0.04478
0.05780
0.08316
0.04637
0.02950
-0.02826
0.13544
0.13526
0.02543
0.02538
-0.06372
-0.04472
0.08012
0.07559
0.03184
0.03566
-0.06399
-0.04484
0.07783
0.07786
0.03384
0.03337
-0.06580
-0.04520
0.08009
0.07973
0.03407
0.03447
-0.06554
-0.04490
0.07996
0.07961
0.03390
0.03412
-0.06572
-0.04520
0.07965
0.08004
0.03431
0.03401
-0.06573
-0.04511
0.08010
0.07965
0.03392
0.03444
-0.06536
-0.04470
0.07971
0.07967
0.03397
0.03402
-0.06530
-0.04464
0.07964
0.07972
0.03417
0.03381
-0.06532
-0.04466
0.07968
0.07975
0.03417
0.03380
-0.06562
-0.04488
0.07977
0.07983
0.03422
0.03417
-0.06583
-0.04527
0.07956
0.08041
0.03471
0.03376
-0.06593
-0.04548
0.07966
0.08042
0.03473
0.03396
-0.06551
-0.04496
0.07909
0.07918
0.03354
0.03362
-0.06589
-0.04512
0.07904
0.08038
0.03457
0.03346
-0.06651
-0.04579
0.07919
0.07985
0.03410
0.03361
-0.06601
-0.04538
0.08050
0.07900
0.03370
0.03492
-0.06523
-0.04442
0.07971
0.07872
0.03291
0.03384
-0.06529
-0.04453
0.07865
0.08000
0.03398
0.03297
-0.06632
-0.04600
0.07897
0.07982
0.03433
0.03376
-0.06613
-0.04538
0.07968
0.07889
0.03321
0.03392
-0.06661
-0.04594
0.08032
0.07962
0.03422
0.03490
-0.06512
-0.04434
0.07876
0.07942
0.03361
0.03301
0.07201
0.07184
0.01857
0.02173
0.01781
0.01555
0.07096
0.07089
0.02024
0.02069
0.01701
0.01729
0.07116
0.07122
0.02091
0.02019
0.01731
0.01762
0.07244
0.07252
0.02016
0.01978
0.01674
0.01693
0.07900
0.08333
0.02014
0.01364
0.01406
0.01349
0.07321
0.07246
0.02021
0.01926
0.01577
0.01741
0.06849
0.06694
0.02420
0.02017
0.01583
0.02281
0.06982
0.07906
0.02002
0.03144
0.03012
0.00817
0.07177
0.07372
0.03066
0.01372
0.01149
0.02495
0.13074
0.01291
0.06794
0.02538
0.07820
0.02543
0.07738
0.07464
0.01852
0.01812
0.01284
0.01722
0.09516
0.24594
0.04383
0.02502
0.06327
0.02489
0.07389
0.07289
0.02145
0.01738
0.01343
0.01822
0.07154
0.07132
0.01994
0.02078
0.01745
0.01686
0.07012
0.07007
0.02032
0.02035
0.01719
0.01768
0.07178
0.07181
0.01999
0.02107
0.01781
0.01686
0.07147
0.07156
0.02046
0.02065
0.01768
0.01720
0.07250
0.07242
0.02046
0.01999
0.01690
0.01733
0.07245
0.07232
0.02037
0.02016
0.01693
0.01718
0.07194
0.07196
0.02078
0.02023
0.01699
0.01757
0.07134
0.07127
0.02066
0.02092
0.01778
0.01736
0.07170
0.07181
0.02059
0.02054
0.01735
0.01751
0.07203
0.07187
0.02000
0.02101
0.01781
0.01673
0.07267
0.07273
0.01981
0.02024
0.01722
0.01667
0.07347
0.07436
0.01943
0.01768
0.01521
0.01554
0.07140
0.07167
0.02076
0.01999
0.01694
0.01747
0.06978
0.06881
0.02102
0.01981
0.01593
0.01857
0.07226
0.07223
0.01958
0.02031
0.01705
0.01668
0.06778
0.06963
0.02474
0.01639
0.01453
0.01976
0.07182
0.07188
0.02027
0.02060
0.01742
0.01691
0.07015
0.06975
0.02007
0.02073
0.01746
0.01706
0.07184
0.07187
0.01945
0.02095
0.01783
0.01652
0.07209
0.07224
0.01896
0.02062
0.01742
0.01555
0.07111
0.07139
0.02026
0.02107
0.01787
0.01709
0.07305
0.07360
0.01765
0.01730
0.01449
0.01356
0.07133
0.07130
0.01812
0.02064
0.01731
0.01528
0.06715
0.06569
0.01992
0.01946
0.01583
0.01709
0.06591
0.06717
0.02446
0.01392
0.01223
0.02026
0.07241
0.07247
0.02032
0.02010
0.01674
0.01712
0.07176
0.07190
0.02093
0.01915
0.01596
0.01779
0.07240
0.07249
0.01923
0.01927
0.01601
0.01620
0.07250
0.07245
0.02033
0.02008
0.01700
0.01724
0.07187
0.07191
0.02075
0.02030
0.01708
0.01755
0.07121
0.07100
0.02089
0.02071
0.01765
0.01765
0.07178
0.07189
0.02059
0.02050
0.01730
0.01750
0.07216
0.07207
0.01991
0.02100
0.01775
0.01652
0.07085
0.07115
0.01998
0.02082
0.01778
0.01644
0.07245
0.07263
0.01937
0.02066
0.01757
0.01634
0.09111
0.07503
0.02025
0.01314
0.00347
0.02262
0.07828
-0.20382
0.04328
0.02598
0.07025
0.02576
0.07835
0.07451
0.01413
0.02124
0.01320
0.01534
0.14507
0.38166
0.11395
0.02511
0.08147
0.02603
0.07396
0.07238
0.01980
0.01798
0.01336
0.01770
0.07077
0.07048
0.02050
0.01942
0.01599
0.01769
0.07071
0.07087
0.02038
0.01922
0.01595
0.01680
0.07195
0.07177
0.02012
0.01914
0.01594
0.01711
0.07102
0.07083
0.02030
0.01989
0.01671
0.01717
0.07289
0.07289
0.01988
0.02020
0.01696
0.01649
0.07117
0.07095
0.02131
0.02009
0.01692
0.01819
0.07175
0.07166
0.02133
0.01937
0.01631
0.01820
0.07080
0.06882
-0.00844
-0.00672
0.07395
-0.00350
-0.00473
0.06614
-0.01093
-0.00423
0.07476
-0.00053
-0.00823
-0.00394
-0.00752
0.07078
0.07157
-0.00517
-0.00580
0.07078
-0.00622
-0.00619
0.07158
-0.00512
-0.00574
0.07035
-0.00631
-0.00545
-0.00641
-0.00541
0.07193
0.06930
-0.00652
-0.00436
0.07013
-0.00661
-0.00536
0.07160
0.07081
-0.00574
-0.00524
-0.00588
-0.00785
-0.00596
-0.00665
0.06927
0.07114
-0.00593
-0.00704
0.06958
0.07059
-0.00654
-0.00703
0.07175
-0.00516
-0.00714
-0.00563
-0.00774
-0.00586
-0.00533
0.07116
0.07033
-0.00683
-0.00596
0.07129
-0.00535
-0.00534
0.07171
-0.00512
-0.00602
0.07019
-0.00627
-0.00521
-0.00685
-0.00570
0.06869
0.06927
-0.00788
-0.00893
0.07113
-0.00559
-0.00751
0.07070
-0.00473
-0.00636
0.06849
-0.01000
-0.00842
-0.00732
-0.00524
0.07666
0.09556
0.00552
-0.00599
0.05688
-0.01322
0.00457
0.05695
-0.01054
-0.00285
0.11177
-0.00241
-0.02928
-0.03095
-0.04295
0.09053
0.06718
-0.01695
-0.00655
0.09981
0.05749
-0.03317
-0.01322
-0.02953
-0.03059
0.06061
-0.00638
-0.00308
-0.00075
-0.00874
0.07121
0.07099
-0.00576
-0.00551
0.07087
-0.00596
-0.00576
0.07126
-0.00563
-0.00589
0.07093
-0.00588
-0.00552
-0.00592
-0.00588
0.07105
0.07086
-0.00583
-0.00596
0.07108
0.07089
-0.00583
-0.00598
-0.00560
-0.00563
0.07149
-0.00534
-0.00603
-0.00533
-0.00592
0.07029
0.07079
-0.00615
-0.00653
0.07152
-0.00543
-0.00633
0.07103
-0.00572
-0.00582
0.07017
-0.00620
-0.00518
-0.00682
-0.00606
0.07006
0.07121
-0.00606
-0.00685
0.07132
-0.00548
-0.00636
0.07016
-0.00657
-0.00557
0.07078
-0.00562
-0.00518
-0.00629
-0.00680
0.05491
0.05628
0.07707
0.07576
0.05668
0.05573
0.07668
0.07773
-0.01456
-0.01543
0.04834
-0.01490
-0.01588
0.04980
-0.01628
0.04989
-0.01653
0.04901
0.05868
0.05550
0.07688
0.08127
0.05545
0.05965
0.07917
0.07516
-0.01677
-0.01848
0.05089
-0.01731
-0.02035
0.04677
-0.01764
0.04945
-0.01757
0.05501
0.04396
0.05943
0.08404
0.06866
0.07119
0.05947
0.07795
0.09185
-0.01896
-0.01378
0.04596
0.01430
-0.00505
0.03696
-0.02114
0.06112
-0.03024
0.01022
0.05871
0.05238
0.07650
0.08175
0.06809
0.05734
0.06999
0.08023
-0.00599
-0.02093
0.03789
-0.02151
-0.01842
0.05085
-0.03025
0.02903
-0.01967
0.05213
0.05673
0.05450
0.07559
0.07884
0.05537
0.05629
0.07676
0.07615
-0.01479
-0.01641
0.04944
-0.01496
-0.01714
0.04685
-0.01593
0.04887
-0.01619
0.05040
0.05607
0.05576
0.07667
0.07693
0.05544
0.05629
0.07755
0.07651
-0.01423
-0.01549
0.04966
-0.01587
0.04860
-0.01412
-0.01540
0.04914
-0.01570
0.04950
0.05689
0.05621
0.07706
0.07783
0.05618
0.05672
0.07763
0.07714
-0.01498
-0.01642
0.05017
-0.01496
-0.01642
0.04959
-0.01631
0.04949
-0.01628
0.05004
0.05578
0.05657
0.07765
0.07658
0.05646
0.05584
0.07692
0.07727
-0.01445
-0.01587
0.04923
-0.01421
-0.01563
0.04977
-0.01582
0.04990
-0.01558
0.04906
0.05553
0.05684
0.07779
0.07644
0.05680
0.05556
0.07647
0.07784
-0.01477
-0.01610
0.04893
-0.01626
0.05004
-0.01459
-0.01588
0.05020
-0.01611
0.04892
0.05518
0.05680
0.07819
0.07652
0.05682
0.05515
0.07551
0.07752
-0.01577
-0.01761
0.04787
-0.01506
-0.01664
0.04991
-0.01671
0.05070
-0.01629
0.04887
0.05778
0.05183
0.07278
0.07916
0.04935
0.06094
0.08138
0.06996
-0.01017
-0.01278
0.05017
-0.01010
0.04328
-0.01545
-0.01630
0.04606
-0.01764
0.05289
0.05636
0.05593
0.07674
0.07704
0.05602
0.05625
0.07738
0.07702
-0.01462
-0.01596
0.04991
-0.01603
0.04928
-0.01449
-0.01581
0.04936
-0.01591
0.04938
0.05608
0.05502
0.07561
0.07699
0.05491
0.05617
0.07724
0.07613
-0.01419
-0.01556
0.04952
-0.01400
-0.01542
0.04866
-0.01560
0.04795
-0.01538
0.04947
0.05647
0.05319
0.07478
0.07797
0.05316
0.05580
0.07601
0.07297
-0.01499
-0.01663
0.04954
-0.01593
-0.01795
0.04537
-0.01597
0.04717
-0.01681
0.04968
0.05618
0.05206
0.07385
0.07817
0.05082
0.05805
0.07594
0.06937
-0.01321
-0.01553
0.04836
-0.01301
0.04578
-0.01659
-0.01777
0.04514
-0.01806
0.05201
0.05620
0.05667
0.07750
0.07708
0.05651
0.05619
0.07711
0.07751
-0.01509
-0.01670
0.04950
-0.01630
0.04982
-0.01518
-0.01678
0.05008
-0.01639
0.04950
0.05618
0.05669
0.07755
0.07721
0.05656
0.05541
0.07609
0.07748
-0.01627
-0.01751
0.04942
-0.01780
0.04985
-0.01600
-0.01737
0.05007
-0.01738
0.04893
0.05688
0.05603
0.07674
0.07784
0.05599
0.05669
0.07762
0.07704
-0.01481
-0.01624
0.05018
-0.01617
0.04915
-0.01485
-0.01631
0.04949
-0.01619
0.05001
0.05582
0.05670
0.07774
0.07654
0.05648
0.05583
0.07697
0.07733
-0.01451
-0.01598
0.04931
-0.01429
-0.01577
0.04994
-0.01586
0.04991
-0.01561
0.04896
0.05504
0.05652
0.07736
0.07609
0.05626
0.05510
0.07601
0.07747
-0.01409
-0.01548
0.04835
-0.01418
-0.01552
0.04999
-0.01554
0.04932
-0.01564
0.04856
0.05474
0.04033
0.06772
0.08580
0.04110
0.06620
0.06974
0.05115
-0.01539
-0.01606
0.04897
-0.00940
0.04011
-0.00102
-0.02513
0.01825
-0.01846
0.03307
0.05324
0.04484
0.07274
0.07699
0.08474
0.05588
0.06180
0.08362
0.00643
-0.01110
0.03460
-0.02331
-0.01381
0.04948
-0.06108
0.00570
-0.02022
0.05181
0.05563
0.05673
0.07774
0.07688
0.05642
0.05634
0.07665
0.07693
-0.01614
-0.01775
0.04867
-0.01700
0.05010
-0.01663
-0.01986
0.04788
-0.01737
0.05046
-0.15814
-0.24065
0.48052
0.00256
0.00507
-0.01536
-0.12957
0.19591
0.04456
0.05442
-0.12114
-0.01237
0.05388
0.05699
0.07785
0.07435
0.05631
0.05515
0.07605
0.07733
-0.01469
-0.01590
0.04690
-0.01639
0.04979
-0.01591
-0.01755
0.04956
-0.01722
0.04880
0.05481
0.05567
0.07658
0.07543
0.05545
0.05552
0.07650
0.07638
-0.01489
-0.01688
0.04725
-0.01622
0.04900
-0.01522
-0.01659
0.04862
-0.01659
0.04898
0.05614
0.05620
0.07715
0.07711
0.05631
0.05626
0.07715
0.07722
-0.01441
-0.01575
0.04941
-0.01587
0.04964
-0.01442
-0.01577
0.04949
-0.01588
0.04959
0.05700
0.05582
0.07694
0.07798
0.05590
0.05715
0.07802
0.07654
-0.01511
-0.01644
0.05029
-0.01654
0.04945
-0.01499
-0.01633
0.04893
-0.01640
0.05054
0.05700
0.05613
0.07713
0.07800
0.05632
0.05715
0.07794
0.07709
-0.01544
-0.01664
0.05025
-0.01698
0.04976
-0.01545
-0.01666
0.04938
-0.01699
0.05055
0.05500
0.05596
0.07702
0.07605
0.05583
0.05511
0.07607
0.07682
-0.01430
-0.01578
0.04832
-0.01570
0.04918
-0.01377
-0.01522
0.04927
-0.01518
0.04853
-0.01589
-0.01985
-0.01642
-0.01791
0.08532
0.08401
-0.02201
-0.01586
0.09147
-0.00952
-0.01771
0.07954
-0.01985
-0.01852
0.08880
-0.01765
-0.01663
-0.01783
-0.01725
0.08501
0.08613
-0.01656
-0.01765
0.08531
-0.01769
-0.01711
0.08611
-0.01686
-0.01699
0.08482
-0.01838
-0.01744
-0.01793
-0.01501
0.08653
0.08206
-0.01714
-0.01704
0.08496
-0.01918
-0.01724
-0.01800
-0.01688
0.08712
0.08513
-0.01749
-0.01723
-0.01735
-0.01815
0.08308
0.08580
-0.01670
-0.01800
-0.01667
-0.01821
0.08357
0.08536
-0.01933
-0.01876
0.08673
-0.01679
-0.01852
-0.01658
-0.01745
0.08575
0.08478
-0.01847
-0.01671
0.08563
-0.01759
-0.01729
0.08615
-0.01707
-0.01669
0.08464
-0.01697
-0.01915
-0.01629
-0.02070
0.08425
0.07937
-0.01858
-0.01895
0.08590
-0.02373
-0.01577
0.08788
-0.01593
-0.02085
0.08551
-0.02311
-0.00916
-0.00122
-0.05311
0.08851
0.05980
-0.01985
-0.01142
0.08098
-0.01851
-0.01017
0.07743
0.02652
-0.08669
0.03701
0.00663
-0.06431
-0.01913
-0.01736
0.05411
0.08742
0.03133
-0.08729
-0.01746
-0.01981
-0.00800
0.08754
-0.01934
-0.01743
0.08400
-0.01745
-0.01722
-0.01742
-0.01693
0.08588
0.08549
-0.01710
-0.01735
0.08541
-0.01744
-0.01734
0.08592
-0.01735
-0.01695
0.08543
-0.01701
-0.01717
-0.01677
-0.01754
0.08539
0.08545
-0.01705
-0.01717
-0.01678
-0.01763
0.08546
0.08556
-0.01745
-0.01766
0.08634
-0.01699
-0.01754
-0.01728
-0.01785
0.08488
0.08439
-0.01746
-0.01775
0.08627
-0.01836
-0.01712
0.08553
-0.01758
-0.01652
0.08460
-0.01684
-0.01782
-0.01693
-0.01828
0.08455
0.08606
-0.01821
-0.01758
0.08493
-0.01778
-0.01696
0.08455
-0.01826
-0.01647
0.08527
0.04847
0.04719
0.04888
0.04769
0.04869
0.04784
0.05647
0.04344
0.04737
0.09381
-0.01322
-0.01763
0.05016
0.04892
0.04546
0.04821
0.04795
0.04881
0.04873
0.04836
0.04807
0.04771
0.04836
0.04899
0.05035
0.04570
0.04597
0.04789
0.04857
0.04818
0.04636
0.04844
0.04814
0.04821
0.04766
0.04888
0.05000
0.04214
0.04463
0.04784
0.04886
0.04719
0.04872
0.04830
0.04816
0.04749
0.04859
0.04887
0.10403
-0.03069
-0.01973
0.05011
0.04797
0.04582
0.04774
0.04802
0.04716
0.04931
0.04745
0.04805
0.20070
0.00535
-0.03905
0.14165
-0.10180
-0.19294
0.01382
-0.14801
-0.03315
-0.05788
0.00649
-0.09524
-0.10577
0.09815
-0.02775
-0.11380
-0.06396
0.01535
-0.18258
0.15263
-0.20161
0.15532
-0.00580
-0.08831
0.04733
-0.17181
-0.07204
0.01011
0.15983
0.09744
-0.21130
0.11930
0.11365
0.12775
0.15849
-0.18250
-0.09342
0.16130
0.02275
0.07483
-0.02046
0.09518
0.09776
0.19105
-0.01137
0.00334
0.00777
0.12533
-0.06617
0.04661
-0.07590
0.47307
-0.12816
0.29874
-0.03367
0.18061
-0.22092
0.20289
0.07315
0.15464
0.20788
-0.10993
-0.08623
0.06744
-0.12246
-0.06917
0.01991
-0.07531
-0.06588
-0.09579
-0.05082
0.01300
0.01455
0.12892
0.01531
-0.17999
-0.05773
-0.03952
0.33418
0.12359
-0.02507
0.01370
-0.15465
0.02162
0.07409
-0.23634
-0.21158
0.07166
-0.02114
0.17078
-0.11099
-0.06847
0.09316
-0.00695
0.09738
0.34149
-0.08457
-0.04307
0.11063
0.21041
-0.19953
-0.08930
0.12389
0.05719
-0.11385
-0.02486
0.07419
0.12025
0.08133
0.00427
-0.17170
-0.02041
0.40281
0.01686
-0.09836
0.02887
0.00335
-0.03668
0.13010
0.02356
-0.01557
-0.11653
-0.03138
-0.01341
0.10852
0.14006
-0.03612
0.05568
0.16574
0.07126
-0.02883
-0.04518
-0.12999
-0.02561
0.20805
0.19245
0.05943
0.00884
-0.06260
0.10967
-0.12168
0.24559
0.14417
0.30364
-0.01823
-0.10830
-0.16674
-0.02129
-0.07697
0.00478
-0.13991
0.03913
-0.16963
-0.09310
-0.15600
-0.01985
-0.06697
0.03241
0.03621
-0.17415
-0.05598
-0.10218
-0.11155
-0.12705
-0.20724
0.12516
-0.07155
0.09924
-0.16689
-0.03876
-0.12438
-0.00801
0.00487
-0.01789
-0.14615
-0.07454
-0.08138
-0.15693
-0.18778
0.02337
-0.19686
0.08958
0.10000
