# vtk DataFile Version 3.0
Point representing Sub_cellular elem model
ASCII

DATASET UNSTRUCTURED_GRID
POINTS 664 float
-0.00056 1.73532 0.98714 
0.00315 1.74100 -1.16250 
1.74200 1.07519 -0.08123 
1.74181 -1.07583 -0.07931 
0.00361 -1.74301 -1.15956 
-0.00247 -1.73455 0.99014 
1.06693 -0.00100 1.67441 
-1.07107 0.00187 1.68037 
1.08153 -0.00145 -1.82283 
-1.07178 -0.00180 -1.82831 
-1.73979 1.07532 -0.08997 
-1.74001 -1.07500 -0.08799 
0.00103 2.05150 -0.08701 
1.02504 1.65702 0.54974 
0.62976 1.02099 1.57971 
-0.63447 1.02268 1.57915 
-1.02480 1.65696 0.54442 
1.02897 1.66019 -0.71803 
0.63905 1.02504 -1.74403 
-0.62998 1.02493 -1.74725 
-1.02457 1.66031 -0.72325 
2.05280 -0.00037 -0.07960 
1.65480 0.63132 0.94565 
1.66451 0.63363 -1.10749 
1.02917 -1.66135 -0.71516 
1.02433 -1.65707 0.55294 
1.65461 -0.63180 0.94701 
1.66468 -0.63532 -1.10639 
0.00075 -2.05157 -0.08360 
0.63947 -1.02799 -1.74230 
-0.62964 -1.02825 -1.74554 
-1.02440 -1.66139 -0.72044 
0.62587 -1.01829 1.58522 
-0.63648 -1.01744 1.58331 
-1.02613 -1.65560 0.54733 
0.19196 0.37662 2.39313 
-1.65579 0.63168 0.93765 
-1.65627 -0.62951 0.93968 
0.00565 -0.00193 -2.13603 
-1.65834 0.63353 -1.11593 
-1.65822 -0.63562 -1.11483 
-2.05054 0.00012 -0.08985 
0.00016 1.96790 0.48354 
0.52229 1.76638 0.80773 
0.32145 1.44155 1.33022 
-0.32416 1.44202 1.32880 
-0.52286 1.76636 0.80501 
0.00208 1.97126 -0.65802 
0.52650 1.77117 -0.97994 
0.32761 1.44707 -1.50327 
-0.31974 1.44706 -1.50492 
-0.52100 1.77122 -0.98261 
1.44740 1.41635 0.24109 
1.44989 1.41770 -0.40592 
1.97181 0.57056 -0.08027 
1.76924 0.89282 0.44254 
1.77405 0.89436 -0.60464 
1.97169 -0.57127 -0.07922 
1.44984 -1.41854 -0.40344 
1.44700 -1.41670 0.24367 
1.76896 -0.89325 0.44423 
1.77409 -0.89547 -0.60305 
0.52689 -1.77277 -0.97692 
0.00231 -1.97226 -0.65469 
0.32812 -1.44969 -1.50084 
-0.31928 -1.44982 -1.50250 
-0.52065 -1.77288 -0.97964 
0.52105 -1.76610 0.81107 
-0.00085 -1.96744 0.48680 
0.31911 -1.44065 1.33319 
-0.32691 -1.44006 1.33137 
-0.52468 -1.76523 0.80786 
0.89245 0.52253 1.69802 
1.41052 0.32071 1.36985 
1.41027 -0.32181 1.37063 
0.88864 -0.52399 1.70091 
0.56529 0.00543 1.93739 
-0.90024 0.52461 1.69889 
-0.89925 -0.51920 1.70400 
-0.56299 0.00833 1.96405 
-1.41425 0.32155 1.36539 
-1.41412 -0.31929 1.36739 
0.90004 0.52207 -1.85372 
1.42315 0.32247 -1.52920 
1.42328 -0.32479 -1.52865 
0.90027 -0.52510 -1.85283 
0.57692 -0.00175 -2.05365 
-0.89032 0.52183 -1.85827 
-0.89015 -0.52543 -1.85739 
-0.56602 -0.00196 -2.05655 
-1.41494 0.32216 -1.53642 
-1.41486 -0.32519 -1.53587 
-1.44621 1.41636 0.23369 
-1.44666 1.41785 -0.41325 
-1.76850 0.89294 0.43365 
-1.77003 0.89449 -0.61356 
-1.96951 0.57082 -0.09011 
-1.44672 -1.41823 -0.41076 
-1.44687 -1.41535 0.23633 
-1.76904 -0.89151 0.43555 
-1.76997 -0.89537 -0.61198 
-1.96963 -0.57054 -0.08905 
0.55669 1.94890 0.21972 
-0.55557 1.94887 0.21686 
0.55814 1.95059 -0.39086 
-0.55500 1.95066 -0.39369 
0.89673 1.38859 1.12037 
1.05173 1.76106 -0.08391 
1.39103 1.20173 0.81754 
-0.00310 1.05140 1.68173 
1.19979 0.89546 1.31254 
0.30111 0.55604 1.90415 
-0.89850 1.38905 1.11598 
-0.30908 0.55779 1.91282 
-1.20313 0.89655 1.30728 
-1.04961 1.76112 -0.08927 
-1.39161 1.20186 0.81034 
0.90423 1.39402 -1.28944 
1.39817 1.20536 -0.98266 
0.00478 1.04933 -1.84717 
1.21034 0.89941 -1.47694 
0.31089 0.55471 -2.03446 
-0.89735 1.39401 -1.29403 
-0.30029 0.55461 -2.03601 
-1.20252 0.89926 -1.48308 
-1.39265 1.20541 -0.98975 
1.94811 0.30459 0.47647 
1.95374 0.30497 -0.63670 
1.94803 -0.30506 0.47706 
1.95376 -0.30613 -0.63615 
1.75593 -0.00021 0.97115 
1.76636 -0.00085 -1.13121 
1.05149 -1.76145 -0.08081 
1.39843 -1.20691 -0.98058 
0.55816 -1.95120 -0.38751 
0.90467 -1.39612 -1.28707 
1.39045 -1.20206 0.82008 
0.55615 -1.94887 0.22312 
0.89536 -1.38840 1.12389 
1.19856 -0.89613 1.31515 
1.21068 -0.90173 -1.47541 
-0.55503 -1.95109 -0.39046 
-0.55634 -1.94834 0.22000 
0.00519 -1.05268 -1.84541 
0.31113 -0.55828 -2.03352 
-0.89700 -1.39640 -1.29168 
-0.30008 -0.55841 -2.03508 
-1.20229 -0.90212 -1.48156 
-1.05001 -1.76086 -0.08630 
-1.39244 -1.20713 -0.98768 
-0.00545 -1.04714 1.68317 
0.28738 -0.53496 1.92025 
-0.90068 -1.38661 1.11914 
-0.30916 -0.54109 1.91983 
-1.20383 -0.89341 1.31113 
-1.39281 -1.19968 0.81321 
-1.75708 0.00093 0.96316 
-1.94741 0.30515 0.46683 
-1.94759 -0.30380 0.46752 
-1.75993 -0.00109 -1.14017 
-1.94949 0.30504 -0.64654 
-1.94946 -0.30607 -0.64600 
-0.00019 1.86797 0.74649 
0.26005 1.76755 0.90802 
0.16002 1.60536 1.16823 
-0.16185 1.60546 1.16745 
-0.26092 1.76756 0.90668 
0.00262 1.87275 -0.92146 
0.26406 1.77292 -1.08193 
0.16492 1.61134 -1.34284 
-0.15780 1.61135 -1.34366 
-0.25812 1.77295 -1.08325 
1.61197 1.25577 0.07956 
1.61333 1.25636 -0.24304 
1.87344 0.83402 -0.08072 
1.77258 0.99475 0.17991 
1.77492 0.99556 -0.34212 
1.87327 -0.83470 -0.07920 
1.61318 -1.25709 -0.24084 
1.61168 -1.25626 0.08180 
1.77231 -0.99525 0.18173 
1.77484 -0.99642 -0.34034 
0.26451 -1.77474 -1.07892 
0.00300 -1.87427 -0.91829 
0.16542 -1.61369 -1.34013 
-0.15732 -1.61375 -1.34096 
-0.25770 -1.77481 -1.08028 
0.25846 -1.76704 0.91126 
-0.00164 -1.86738 0.74963 
0.15783 -1.60452 1.17126 
-0.16423 -1.60425 1.17022 
-0.26282 -1.76661 0.90957 
0.99374 0.25877 1.70313 
1.24959 0.15861 1.53763 
1.24973 -0.16009 1.53774 
0.99394 -0.26081 1.70324 
0.82728 -0.00027 1.81658 
-1.00214 0.26069 1.70571 
-1.00132 -0.25622 1.70882 
-0.83062 0.00355 1.83068 
-1.25478 0.15962 1.53687 
-1.25447 -0.15711 1.53831 
1.00151 0.25952 -1.85505 
1.26230 0.16001 -1.69329 
1.26237 -0.16264 -1.69302 
1.00163 -0.26251 -1.85460 
0.84042 -0.00161 -1.95472 
-0.99169 0.25922 -1.86012 
-0.99161 -0.26286 -1.85968 
-0.83001 -0.00190 -1.95897 
-1.25323 0.15967 -1.69969 
-1.25319 -0.16303 -1.69942 
-1.61028 1.25585 0.07140 
-1.61063 1.25651 -0.25117 
-1.77112 0.99486 0.17101 
-1.77186 0.99573 -0.35101 
-1.87118 0.83420 -0.09008 
-1.61078 -1.25652 -0.24891 
-1.61069 -1.25517 0.07375 
-1.77151 -0.99397 0.17293 
-1.77191 -0.99599 -0.34923 
-1.87135 -0.83389 -0.08854 
0.00057 2.02998 0.20287 
0.00154 2.03170 -0.37701 
0.28545 2.02526 0.06199 
-0.28387 2.02525 0.06053 
0.28606 2.02611 -0.23455 
-0.28349 2.02614 -0.23601 
0.77999 1.72935 0.68718 
1.24985 1.55162 0.39947 
0.80501 1.82510 0.38494 
0.97890 1.53825 0.84577 
1.04538 1.73405 0.23765 
1.21908 1.44752 0.69873 
0.48040 1.24571 1.46820 
0.76938 0.77984 1.65601 
0.77816 1.21512 1.36682 
0.32081 1.04487 1.65456 
0.92568 0.97663 1.46069 
0.46578 0.80247 1.75756 
-0.48413 1.24673 1.46681 
-0.77634 0.78313 1.65497 
-0.32632 1.04607 1.65504 
-0.78127 1.21619 1.36385 
-0.47230 0.80444 1.76067 
-0.93012 0.97858 1.45722 
-0.78019 1.72929 0.68312 
-1.24915 1.55158 0.39301 
-0.80434 1.82502 0.38079 
-0.97958 1.53832 0.84070 
-1.04425 1.73402 0.23228 
-1.21927 1.44754 0.69236 
0.78418 1.73337 -0.85747 
1.25320 1.55385 -0.56593 
0.80757 1.82757 -0.55468 
1.04736 1.73565 -0.40559 
0.98471 1.54280 -1.01455 
1.22459 1.45110 -0.86551 
0.48733 1.24974 -1.63852 
0.77805 0.77994 -1.81650 
0.78687 1.22051 -1.53504 
0.32659 1.04410 -1.82039 
0.93554 0.98028 -1.62608 
0.47526 0.80387 -1.91137 
-0.47880 1.24969 -1.64098 
-0.76858 0.77977 -1.82043 
-0.31717 1.04404 -1.82203 
-0.77883 1.22044 -1.53903 
-0.46533 0.80375 -1.91376 
-0.92702 0.98014 -1.63082 
-0.77921 1.73347 -0.86145 
-1.24940 1.55400 -0.57228 
-0.80380 1.82768 -0.55878 
-1.04415 1.73578 -0.41091 
-0.97907 1.54287 -1.01955 
-1.21959 1.45121 -0.87173 
2.03241 0.28960 -0.07990 
2.03235 -0.29033 -0.07937 
2.02551 0.14788 0.20503 
2.02843 0.14789 -0.36463 
2.02546 -0.14846 0.20530 
2.02841 -0.14882 -0.36435 
1.72969 0.77046 0.70044 
1.54717 0.47984 1.17091 
1.53840 0.92711 0.89970 
1.44522 0.77833 1.14017 
1.82344 0.46842 0.72511 
1.73005 0.32013 0.96544 
1.73702 0.77253 -0.86248 
1.55877 0.48202 -1.33205 
1.54700 0.93031 -1.06310 
1.45579 0.78173 -1.30318 
1.83139 0.46957 -0.88610 
1.74029 0.32103 -1.12625 
1.25327 -1.55484 -0.56323 
0.78449 -1.73475 -0.85450 
1.04735 -1.73639 -0.40257 
1.22484 -1.45249 -0.86301 
0.80769 -1.82847 -0.55153 
0.98506 -1.54443 -1.01191 
1.24931 -1.55183 0.40238 
0.77907 -1.72926 0.69048 
1.04490 -1.73421 0.24080 
1.21838 -1.44770 0.70167 
0.80438 -1.82509 0.38825 
0.97794 -1.53824 0.84906 
1.72945 -0.77088 0.70198 
1.54698 -0.48050 1.17203 
1.82331 -0.46883 0.72605 
1.72998 -0.32057 0.96615 
1.53801 -0.92755 0.90169 
1.44476 -0.77897 1.14203 
1.73715 -0.77392 -0.86112 
1.55893 -0.48403 -1.33122 
1.83147 -0.47099 -0.88527 
1.74038 -0.32273 -1.12569 
1.54723 -0.93197 -1.06148 
1.45606 -0.78373 -1.30184 
0.00155 -2.03219 -0.37360 
-0.00006 -2.02973 0.20623 
0.28595 -2.02645 -0.23112 
0.28504 -2.02525 0.06543 
-0.28364 -2.02635 -0.23266 
-0.28437 -2.02505 0.06383 
0.48781 -1.25256 -1.63642 
0.77839 -0.78296 -1.81518 
0.78733 -1.22305 -1.53298 
0.93593 -0.98293 -1.62442 
0.32702 -1.04729 -1.81864 
0.47560 -0.80716 -1.91001 
-0.47839 -1.25276 -1.63889 
-0.76832 -0.78327 -1.81912 
-0.31678 -1.04743 -1.82028 
-0.77847 -1.22335 -1.53698 
-0.46504 -0.80736 -1.91241 
-0.92673 -0.98327 -1.62917 
-0.77894 -1.73486 -0.85854 
-1.24934 -1.55474 -0.56962 
-0.80373 -1.82841 -0.55573 
-0.97878 -1.54463 -1.01695 
-1.04421 -1.73617 -0.40798 
-1.21938 -1.45264 -0.86925 
0.47852 -1.24499 1.47100 
0.76489 -0.77930 1.66059 
0.77593 -1.21434 1.37092 
0.92314 -0.97671 1.46439 
0.31983 -1.04301 1.65651 
0.45919 -0.79407 1.76641 
-0.48759 -1.24422 1.46881 
-0.77644 -0.77705 1.66045 
-0.33124 -1.04320 1.65537 
-0.78352 -1.21284 1.36742 
-0.47407 -0.79512 1.76569 
-0.93112 -0.97454 1.46168 
-0.78182 -1.72800 0.68598 
-1.25013 -1.55033 0.39585 
-0.80542 -1.82412 0.38376 
-1.04507 -1.73318 0.23522 
-0.98140 -1.53646 0.84365 
-1.22065 -1.44571 0.69527 
0.36836 -0.28487 2.17640 
0.19868 -0.33546 2.47461 
0.37351 0.25061 2.20207 
-0.03772 0.04194 2.78489 
-0.05623 -0.50096 2.07870 
-0.30480 -0.39342 2.20404 
-1.54940 0.48044 1.16420 
-1.72972 0.77065 0.69180 
-1.44736 0.77891 1.13334 
-1.53927 0.92734 0.89195 
-1.73110 0.32079 0.95737 
-1.82350 0.46885 0.71615 
-1.54961 -0.47818 1.16630 
[...]
CELL_DATA 1984
SCALARS Strain double 
LOOKUP_TABLE default 
-0.08768
-0.08946
-0.08792
-0.08843
-0.08895
-0.08800
-0.08722
-0.08771
-0.08755
-0.08737
-0.08852
-0.08736
-0.08812
-0.08713
-0.08783
-0.08818
-0.08779
-0.08807
-0.08734
-0.08754
-0.08729
-0.08810
-0.08769
-0.08768
-0.08725
-0.08857
-0.08783
-0.08828
-0.08727
-0.08894
-0.09889
-0.07544
-0.07632
-0.09892
-0.07487
-0.10678
-0.10736
-0.05853
-0.06549
-0.06629
-0.08745
-0.08759
-0.08754
-0.08746
-0.08755
-0.08740
-0.08735
-0.08759
-0.08751
-0.08764
-0.08831
-0.08778
-0.08731
-0.08771
-0.08832
-0.08745
-0.08866
-0.08689
-0.08773
-0.08846
-0.03493
-0.03493
0.06959
0.06876
0.06891
0.06961
-0.03679
-0.03645
0.06975
0.07001
0.06940
0.06934
-0.03069
-0.04079
0.07596
0.05839
0.06915
0.08233
-0.02966
-0.04200
0.05650
0.07760
0.08541
0.07180
-0.03600
-0.03571
0.06875
0.07017
0.06939
0.06839
-0.03364
-0.03363
0.06922
0.06888
0.06896
0.06932
-0.03410
-0.03406
0.06931
0.06977
0.06975
0.06940
-0.03396
-0.03393
0.06971
0.06932
0.06942
0.06964
-0.03402
-0.03409
0.06964
0.06881
0.06893
0.06967
-0.03492
-0.03493
0.06932
0.06972
0.06991
0.06922
-0.03151
-0.03052
0.06629
0.06743
0.06872
0.06498
-0.03441
-0.03437
0.06966
0.06961
0.06955
0.06974
-0.03403
-0.03394
0.06901
0.06949
0.06941
0.06901
-0.03571
-0.03612
0.06967
0.06870
0.06930
0.07051
-0.03213
-0.03142
0.06986
0.06506
0.06616
0.06929
-0.03421
-0.03421
0.06926
0.06975
0.06969
0.06939
-0.03502
-0.03504
0.06930
0.06926
0.06931
0.06931
-0.03409
-0.03405
0.06927
0.06973
0.06979
0.06938
-0.03403
-0.03396
0.06983
0.06918
0.06930
0.06979
-0.03363
-0.03363
0.06927
0.06878
0.06872
0.06934
-0.02549
-0.04857
0.08541
0.07428
0.04652
0.10556
-0.02236
-0.04162
0.04479
0.08303
0.09645
0.06782
-0.03690
-0.03660
0.07000
0.06961
0.07068
0.06954
-0.11917
0.16686
-0.03009
-0.00923
-0.00901
-0.02914
-0.03077
0.06764
0.06595
0.06403
0.06915
-0.02845
-0.02997
0.06868
0.06484
0.06295
0.07005
-0.03403
-0.03404
0.06953
0.06955
0.06955
0.06953
-0.03421
-0.03425
0.06930
0.06986
0.06993
0.06917
-0.03443
-0.03445
0.06957
0.06974
0.06987
0.06947
-0.03533
-0.03537
0.06979
0.06973
0.06938
0.06958
-0.06606
-0.04565
0.07921
0.07817
0.03265
0.03355
-0.06785
-0.04746
0.07931
0.07953
0.03359
0.03384
-0.06607
-0.04546
0.07995
0.07723
0.03099
0.03419
-0.06627
-0.04481
0.07739
0.08007
0.03365
0.03103
-0.06712
-0.04668
0.07827
0.07977
0.03367
0.03302
-0.06623
-0.04570
0.07972
0.08013
0.03450
0.03404
-0.06519
-0.04449
0.07974
0.07935
0.03352
0.03407
-0.06570
-0.04498
0.07953
0.08021
0.03452
0.03402
-0.06553
-0.04483
0.08017
0.07945
0.03395
0.03441
-0.06543
-0.04480
0.08008
0.07928
0.03348
0.03436
-0.06707
-0.04689
0.07989
0.07957
0.03442
0.03485
-0.06525
-0.04450
0.07949
0.07932
0.03342
0.03370
-0.06632
-0.04572
0.07934
0.08011
0.03470
0.03381
-0.06461
-0.04322
0.07868
0.07887
0.03233
0.03218
-0.06590
-0.04526
0.07953
0.07998
0.03435
0.03405
-0.06637
-0.04575
0.07997
0.07961
0.03421
0.03428
-0.06573
-0.04496
0.07968
0.07954
0.03373
0.03388
-0.06648
-0.04620
0.08001
0.07900
0.03380
0.03484
-0.06494
-0.04367
0.07966
0.07832
0.03207
0.03328
-0.06562
-0.04501
0.07952
0.07964
0.03406
0.03396
-0.06533
-0.04471
0.07988
0.07926
0.03351
0.03417
-0.06632
-0.04578
0.07993
0.07991
0.03426
0.03433
-0.06568
-0.04497
0.07942
0.08024
0.03450
0.03394
-0.06565
-0.04492
0.08027
0.07934
0.03387
0.03458
-0.06522
-0.04450
0.07987
0.07915
0.03333
0.03414
-0.06689
-0.04656
0.07894
0.07987
0.03368
0.03345
-0.06627
-0.04582
0.07894
0.07911
0.03333
0.03332
-0.06634
-0.04531
0.08088
0.07836
0.03294
0.03610
-0.06451
-0.04316
0.07754
0.08011
0.03460
0.03114
-0.06734
-0.04717
0.07953
0.07948
0.03340
0.03458
-0.06180
-0.04282
0.07629
0.07413
0.03424
0.03227
-0.05904
-0.04019
0.07723
0.07177
0.02979
0.03463
-0.06184
-0.04168
0.07281
0.08156
0.03665
0.03009
-0.05887
-0.04857
0.08581
0.07080
0.03650
0.04672
-0.04196
0.20235
0.11352
0.13970
0.02597
0.02586
-0.06046
-0.03711
0.08140
0.07631
0.02735
0.03667
-0.06331
-0.04083
0.08815
0.07827
0.02829
0.04249
-0.00711
0.15107
0.16582
0.02638
0.02648
-0.05476
-0.03781
0.07684
0.07002
0.03048
0.03559
-0.05508
-0.03752
0.07954
0.06899
0.02836
0.03797
-0.06549
-0.04485
0.07989
0.07977
0.03402
0.03425
-0.06571
-0.04513
0.07984
0.08004
0.03435
0.03414
-0.06563
-0.04502
0.08004
0.07975
0.03399
0.03435
-0.06549
-0.04484
0.07985
0.07980
0.03405
0.03424
-0.06554
-0.04487
0.07983
0.07985
0.03419
0.03418
-0.06540
-0.04474
0.07986
0.07976
0.03417
0.03411
-0.06538
-0.04475
0.07974
0.07988
0.03425
0.03396
-0.06558
-0.04489
0.07992
0.07984
0.03421
0.03425
-0.06560
-0.04499
0.07966
0.08021
0.03451
0.03391
-0.06577
-0.04520
0.07983
0.08020
0.03449
0.03413
-0.06673
-0.04636
0.07976
0.07899
0.03371
0.03473
-0.06574
-0.04499
0.07940
0.07957
0.03381
0.03370
-0.06463
-0.04294
0.07815
0.07921
0.03262
0.03152
-0.06576
-0.04509
0.07967
0.07949
0.03393
0.03411
-0.06661
-0.04608
0.07969
0.07971
0.03454
0.03409
-0.06530
-0.04451
0.07953
0.07918
0.03330
0.03365
-0.06727
-0.04710
0.08015
0.07931
0.03438
0.03546
-0.06405
-0.04221
0.07800
0.07917
0.03243
0.03110
-0.06586
-0.04526
0.07942
0.07987
0.03428
0.03398
-0.06676
-0.04620
0.07963
0.08005
0.03481
0.03397
0.07211
0.07219
0.01910
0.01973
0.01647
0.01601
0.07117
0.07118
0.01991
0.01974
0.01644
0.01672
0.07154
0.07163
0.02084
0.01972
0.01647
0.01771
0.07213
0.07214
0.02028
0.01967
0.01643
0.01705
0.07353
0.07525
0.02047
0.01554
0.01372
0.01535
0.07157
0.07141
0.02090
0.01950
0.01612
0.01775
0.07116
0.07010
0.02189
0.01782
0.01401
0.01952
0.07938
0.07692
0.02020
0.01851
0.01326
0.01763
0.06900
0.06897
0.02292
0.01754
0.01502
0.02008
0.09778
0.06002
0.05559
0.02615
0.06030
0.02611
0.07613
0.07397
0.01601
0.01988
0.01463
0.01482
0.10427
0.23014
0.06910
0.02563
0.06421
0.02564
0.06939
0.06938
0.02376
0.01835
0.01568
0.02049
0.07149
0.07132
0.02012
0.02002
0.01674
0.01701
0.07058
0.06978
0.02191
0.01825
0.01470
0.01971
0.07159
0.07171
0.02043
0.02082
0.01762
0.01732
0.07195
0.07206
0.02004
0.02072
0.01759
0.01692
0.07228
0.07226
0.02042
0.02035
0.01723
0.01729
0.07222
0.07217
0.02026
0.02062
0.01738
0.01700
0.07197
0.07202
0.02058
0.02049
0.01728
0.01741
0.07171
0.07158
0.02065
0.02068
0.01754
0.01739
0.07199
0.07204
0.02054
0.02053
0.01733
0.01739
0.07205
0.07194
0.02034
0.02079
0.01758
0.01708
0.07223
0.07230
0.02009
0.02036
0.01730
0.01700
0.07187
0.07174
0.02136
0.01813
0.01485
0.01855
0.07210
0.07205
0.02011
0.02043
0.01728
0.01693
0.07258
0.07261
0.02079
0.01811
0.01485
0.01786
0.07167
0.07168
0.02050
0.02042
0.01727
0.01726
0.06720
0.06720
0.02110
0.02242
0.01889
0.01801
0.07228
0.07228
0.02042
0.02022
0.01697
0.01723
0.07160
0.07179
0.01987
0.02032
0.01726
0.01651
0.07207
0.07213
0.02017
0.02041
0.01735
0.01700
0.07187
0.07183
0.01976
0.02053
0.01731
0.01655
0.07158
0.07167
0.02051
0.02073
0.01746
0.01738
0.07050
0.06961
0.02184
0.01903
0.01556
0.01953
0.07174
0.07172
0.01979
0.01963
0.01646
0.01655
0.07481
0.07880
0.02072
0.01584
0.01546
0.01395
0.07229
0.07387
0.01649
0.02399
0.02041
0.01344
0.07203
0.07214
0.02064
0.02029
0.01704
0.01742
0.07181
0.07178
0.02070
0.01953
0.01628
0.01760
0.07192
0.07217
0.01958
0.01951
0.01626
0.01627
0.07234
0.07235
0.02036
0.02030
0.01720
0.01726
0.07197
0.07202
0.02060
0.02048
0.01726
0.01744
0.07155
0.07141
0.02087
0.02050
0.01740
0.01767
0.07191
0.07199
0.02060
0.02054
0.01732
0.01744
0.07225
0.07218
0.02017
0.02074
0.01748
0.01689
0.07129
0.07156
0.01944
0.02087
0.01770
0.01617
0.07196
0.07211
0.01995
0.02071
0.01762
0.01682
0.08366
0.08562
0.02272
0.02108
0.01725
0.01613
0.15166
0.26130
0.08587
0.02584
0.10670
0.02584
0.07870
0.07512
0.01364
0.02224
0.01570
0.01328
0.12827
0.06344
0.06593
0.02562
0.10616
0.02601
0.06873
0.07000
0.02796
0.01630
0.01480
0.02338
0.07109
0.06936
0.02307
0.01779
0.01383
0.02158
0.06562
0.06520
0.02230
0.02377
0.01985
0.01919
0.07229
0.07243
0.01725
0.02148
0.01906
0.01375
0.07281
0.07260
0.01689
0.02164
0.01893
0.01361
0.07246
0.07244
0.02014
0.02038
0.01716
0.01690
0.07162
0.07167
0.02047
0.02035
0.01714
0.01731
0.07192
0.07195
0.02040
0.02016
0.01690
0.01728
0.07017
0.06925
-0.00761
-0.00678
0.07081
-0.00618
-0.00630
0.06863
-0.00845
-0.00607
0.07115
-0.00596
-0.00799
-0.00609
-0.00705
0.07104
0.07132
-0.00537
-0.00567
0.07073
-0.00630
-0.00584
0.07144
-0.00535
-0.00584
0.07062
-0.00596
-0.00547
-0.00633
-0.00561
0.07106
0.07069
-0.00551
-0.00510
0.07040
-0.00669
-0.00608
0.07034
0.07135
-0.00515
-0.00610
-0.00719
-0.00685
-0.00549
-0.00613
0.07095
0.07088
-0.00556
-0.00568
0.07118
0.07061
-0.00630
-0.00584
0.07027
-0.00607
-0.00523
-0.00699
-0.00648
-0.00613
-0.00594
0.07117
0.07059
-0.00637
-0.00577
0.07117
-0.00554
-0.00548
0.07149
-0.00539
-0.00595
0.07054
-0.00600
-0.00532
-0.00645
-0.00577
0.06990
0.07141
-0.00614
-0.00675
0.07042
-0.00677
-0.00693
0.06927
-0.00712
-0.00450
0.07078
-0.00602
-0.00806
-0.00637
-0.00559
0.06489
0.08950
-0.00335
-0.02245
0.05811
-0.00904
-0.00421
0.06534
-0.00315
-0.00616
0.09361
-0.00823
-0.02347
-0.02016
-0.02655
0.10692
0.06319
-0.02513
-0.00027
0.10849
0.06543
-0.02334
0.00192
-0.04105
-0.04366
0.05156
-0.00794
-0.00228
-0.00984
0.00008
0.07107
0.07107
-0.00582
-0.00571
0.07123
-0.00558
-0.00575
0.07103
-0.00584
-0.00559
0.07110
-0.00578
-0.00571
-0.00568
-0.00569
0.07118
0.07095
-0.00578
-0.00572
0.07107
0.07105
-0.00573
-0.00587
-0.00564
-0.00559
0.07136
-0.00547
-0.00591
-0.00545
-0.00574
0.07098
0.07023
-0.00607
-0.00523
0.07051
-0.00639
-0.00603
0.07064
-0.00692
-0.00730
0.07091
-0.00595
-0.00619
-0.00534
-0.00587
0.07126
0.07019
-0.00687
-0.00604
0.07031
-0.00561
-0.00463
0.07047
-0.00728
-0.00751
0.07132
-0.00557
-0.00636
-0.00494
-0.00596
0.05528
0.05611
0.07701
0.07604
0.05657
0.05593
0.07695
0.07751
-0.01544
-0.01680
0.04876
-0.01546
-0.01680
0.04948
-0.01680
0.04992
-0.01682
0.04916
0.05587
0.05635
0.07718
0.07711
0.05656
0.05690
0.07726
0.07709
-0.01645
-0.01789
0.04900
-0.01769
-0.01964
0.04874
-0.01758
0.05003
-0.01868
0.05096
0.04923
0.05271
0.07698
0.07611
0.05671
0.06552
0.07558
0.06864
-0.01818
-0.01529
0.04644
-0.00187
-0.01665
0.03437
-0.01780
0.05193
-0.02938
0.03087
0.05302
0.04896
0.07521
0.07746
0.07104
0.05489
0.06357
0.07454
0.00073
-0.01451
0.03467
-0.01886
-0.01526
0.04799
-0.03343
0.02586
-0.01552
0.05145
0.05593
0.05541
0.07614
0.07736
0.05566
0.05683
0.07714
0.07636
-0.01573
-0.01709
0.04898
-0.01681
-0.01890
0.04788
-0.01697
0.04911
-0.01806
0.05096
0.05565
0.05620
0.07709
0.07671
0.05582
0.05578
0.07671
0.07692
-0.01412
-0.01555
0.04891
-0.01551
0.04899
-0.01420
-0.01559
0.04961
-0.01562
0.04919
0.05662
0.05618
0.07700
0.07758
0.05614
0.05648
0.07740
0.07716
-0.01455
-0.01600
0.04992
-0.01461
-0.01605
0.04958
-0.01590
0.04938
-0.01597
0.04982
0.05615
0.05651
0.07752
0.07697
0.05641
0.05619
0.07721
0.07728
-0.01452
-0.01595
0.04956
-0.01438
-0.01581
0.04976
-0.01589
0.04979
-0.01574
0.04943
0.05559
0.05653
0.07748
0.07666
0.05625
0.05576
0.07663
0.07725
-0.01468
-0.01602
0.04884
-0.01613
0.04951
-0.01452
-0.01584
0.04989
-0.01600
0.04921
0.05678
0.05599
0.07694
0.07749
0.05623
0.05648
0.07755
0.07699
-0.01613
-0.01750
0.05037
-0.01493
-0.01632
0.04928
-0.01751
0.04972
-0.01634
0.04969
0.05427
0.05317
0.07512
0.07625
0.05217
0.05600
0.07517
0.07112
-0.01154
-0.01381
0.04665
-0.01234
0.04690
-0.01249
-0.01442
0.04614
-0.01346
0.04973
0.05645
0.05642
0.07723
0.07733
0.05651
0.05631
0.07730
0.07750
-0.01491
-0.01635
0.04984
-0.01623
0.04977
-0.01492
-0.01633
0.04980
-0.01626
0.04962
0.05606
0.05590
0.07689
0.07712
0.05570
0.05633
0.07725
0.07669
-0.01453
-0.01601
0.04927
-0.01447
-0.01597
0.04925
-0.01587
0.04903
-0.01578
0.04971
0.05594
0.05709
0.07744
0.07645
0.05600
0.05610
0.07676
0.07729
-0.01593
-0.01706
0.04951
-0.01661
-0.01769
0.05135
-0.01726
0.04915
-0.01890
0.04796
0.05315
0.05553
0.07720
0.07487
0.05751
0.05215
0.07138
0.07809
-0.01320
-0.01499
0.04615
-0.01442
0.05076
-0.01210
-0.01420
0.04856
-0.01323
0.04628
0.05643
0.05615
0.07695
0.07729
0.05610
0.05652
0.07750
0.07715
-0.01468
-0.01605
0.04980
-0.01607
0.04934
-0.01479
-0.01619
0.04961
-0.01615
0.04981
0.05627
0.05633
0.07725
0.07723
0.05580
0.05582
0.07671
0.07676
-0.01545
-0.01681
0.04955
-0.01683
0.04916
-0.01562
-0.01695
0.04972
-0.01701
0.04913
0.05660
0.05612
0.07693
0.07761
0.05614
0.05649
0.07737
0.07716
-0.01452
-0.01596
0.04984
-0.01588
0.04938
-0.01462
-0.01607
0.04955
-0.01597
0.04986
0.05605
0.05668
0.07765
0.07684
0.05651
0.05604
0.07709
0.07741
-0.01455
-0.01601
0.04949
-0.01446
-0.01592
0.04997
-0.01589
0.04987
-0.01579
0.04926
0.05545
0.05626
0.07719
0.07651
0.05579
0.05565
0.07662
0.07687
-0.01416
-0.01561
0.04872
-0.01417
-0.01555
0.04966
-0.01554
0.04904
-0.01561
0.04905
0.04678
0.05196
0.07732
0.07840
0.06300
0.07513
0.08378
0.08004
-0.02141
-0.01377
0.04940
-0.02091
0.05477
0.01506
-0.01491
0.02659
-0.05056
-0.00336
0.04810
0.04378
0.07733
0.07611
0.06464
0.06260
0.07650
0.07390
0.01856
-0.01357
0.01838
-0.01815
-0.01154
0.04562
-0.03547
0.00052
-0.01756
0.05599
0.05580
0.05712
0.07743
0.07714
0.05661
0.05756
0.07752
0.07704
-0.01642
-0.01757
0.04886
-0.01767
0.05004
-0.01794
-0.02022
0.04910
-0.01891
0.05231
-0.18448
-0.09495
0.22124
-0.14066
-0.01293
0.01792
0.05983
-0.05846
-0.11995
-0.29189
0.09066
0.00055
0.05224
0.05658
0.07521
0.07003
0.05454
0.05235
0.07460
0.07662
-0.01094
-0.01135
0.04704
-0.01353
0.04709
-0.01151
-0.01187
0.05050
-0.01395
0.04491
0.05052
0.05828
0.07719
0.06876
0.05480
0.05161
0.07405
0.07693
-0.00926
-0.00930
0.04585
-0.01228
0.04703
-0.01150
-0.01248
0.05152
-0.01364
0.04444
0.05634
0.05632
0.07726
0.07727
0.05634
0.05637
0.07731
0.07726
-0.01453
-0.01592
0.04965
-0.01594
0.04966
-0.01451
-0.01590
0.04963
-0.01591
0.04967
0.05670
0.05601
0.07705
0.07769
0.05608
0.05657
0.07741
0.07688
-0.01478
-0.01611
0.04998
-0.01623
0.04955
-0.01474
-0.01609
0.04926
-0.01614
0.04994
0.05664
0.05627
0.07728
0.07766
0.05640
0.05647
0.07723
0.07722
-0.01498
-0.01631
0.04987
-0.01640
0.04984
-0.01497
-0.01632
0.04953
-0.01634
0.04990
0.05661
0.05631
0.07734
0.07713
0.05676
0.05616
0.07732
0.07739
-0.01691
-0.01819
0.05047
-0.01833
0.05042
-0.01508
-0.01646
0.04954
-0.01651
0.04931
-0.01785
-0.01906
-0.01783
-0.01822
0.08539
0.08432
-0.02025
-0.01767
0.08571
-0.01770
-0.01711
0.08498
-0.01794
-0.01968
0.08613
-0.01789
-0.01679
-0.01792
-0.01716
0.08537
0.08584
-0.01679
-0.01725
0.08520
-0.01731
-0.01720
0.08591
-0.01704
-0.01698
0.08516
-0.01847
-0.01678
-0.01930
-0.01586
0.08522
0.08458
-0.01687
-0.01757
0.08542
-0.01859
-0.01615
-0.01753
-0.01753
0.08512
0.08570
-0.01864
-0.01663
-0.01756
-0.01718
0.08588
0.08525
-0.01733
-0.01800
-0.01729
-0.01736
0.08543
0.08555
-0.01845
-0.01611
0.08406
-0.01702
-0.01793
-0.01690
-0.01720
0.08558
0.08513
-0.01804
-0.01687
0.08556
-0.01734
-0.01729
0.08599
-0.01719
-0.01676
0.08501
-0.01834
-0.01790
-0.01889
-0.01799
0.08501
0.08601
-0.01809
-0.01850
0.08530
-0.01701
-0.01499
0.08550
-0.01626
-0.02008
0.08572
-0.01871
-0.01368
0.00648
-0.05986
0.08268
0.04255
-0.01445
-0.01590
0.07949
-0.01537
-0.02043
0.08850
0.01432
-0.07565
0.03733
0.02446
-0.08094
-0.01725
-0.01208
0.02656
0.08293
0.01999
-0.08548
-0.02009
-0.00978
0.04126
0.08426
-0.01219
-0.01370
0.07741
-0.01706
-0.01735
-0.01714
-0.01713
0.08569
0.08556
-0.01738
-0.01724
0.08586
-0.01729
-0.01705
0.08560
-0.01714
-0.01712
0.08557
-0.01707
-0.01717
-0.01693
-0.01724
0.08561
0.08551
-0.01705
-0.01714
-0.01693
-0.01742
0.08553
0.08569
-0.01724
-0.01745
0.08604
-0.01802
-0.01739
-0.01890
-0.01584
0.08510
0.08404
-0.01730
-0.01748
0.08566
-0.01608
-0.01915
0.08555
-0.01733
-0.01765
0.08524
-0.01681
-0.01864
-0.01690
-0.01759
0.08525
0.08538
-0.01948
-0.01495
0.08412
-0.01567
-0.01939
0.08570
-0.01748
-0.01775
0.08556
0.04872
0.04761
0.04765
0.04786
0.04823
0.04759
0.05044
0.04670
0.04488
0.08715
-0.00631
-0.00699
0.05040
0.04558
0.04653
0.04803
0.04843
0.04863
0.04856
0.04837
0.04835
0.04807
0.04840
0.04867
0.04855
0.04934
0.04481
0.04837
0.04802
0.04856
0.04780
0.04794
0.04827
0.04850
0.04804
0.04848
0.04583
0.05153
0.04758
0.04781
0.04860
0.04748
0.04862
0.04836
0.04831
0.04789
0.04866
0.04850
0.12637
-0.05021
-0.05650
0.05291
0.04479
0.04654
0.04326
0.04935
0.04978
0.04868
0.04797
0.04824
-0.06839
-0.01498
0.12680
0.02822
-0.09072
-0.00919
0.07830
-0.06019
0.01583
0.13984
-0.12145
-0.23523
0.16422
-0.02915
-0.11420
0.07471
0.07713
-0.06088
0.03010
-0.02881
-0.08697
-0.15928
-0.13632
-0.21989
0.15142
-0.06970
0.21856
-0.00415
-0.16019
-0.05032
-0.03259
0.31640
-0.10888
-0.19718
0.04271
-0.00612
-0.01390
-0.05411
0.14785
0.09735
-0.14779
-0.09955
-0.04330
-0.11647
0.17359
-0.07437
-0.07059
-0.13269
-0.02567
-0.05284
-0.02515
0.03198
0.01326
-0.13069
0.14583
0.00363
0.02627
0.00844
-0.03287
0.14860
-0.21405
-0.03751
-0.06748
-0.11008
-0.02001
-0.09072
-0.05666
-0.09524
-0.07193
-0.06967
-0.07794
0.10000
