# vtk DataFile Version 3.0
Point representing Sub_cellular elem model
ASCII

DATASET UNSTRUCTURED_GRID
POINTS 650 float
0.00006 1.74064 1.04617 
0.00093 1.74159 -1.10324 
1.74312 1.07658 -0.02618 
1.74251 -1.07640 -0.02378 
0.00157 -1.74353 -1.10135 
-0.00056 -1.73931 1.04853 
1.07653 0.00225 1.72205 
-1.08126 0.00066 1.72435 
1.07817 -0.00142 -1.76532 
-1.07511 -0.00142 -1.76621 
-1.74204 1.07623 -0.02742 
-1.74210 -1.07724 -0.02702 
0.00015 2.05397 -0.02867 
1.02665 1.66107 0.60577 
0.63179 1.02456 1.63909 
-0.63370 1.02679 1.63747 
-1.02627 1.66024 0.60569 
1.02806 1.66122 -0.66136 
0.63595 1.02519 -1.68557 
-0.63321 1.02518 -1.68598 
-1.02658 1.66094 -0.66181 
2.05376 -0.00019 -0.02445 
1.65922 0.63494 1.00005 
1.66280 0.63357 -1.05130 
1.02833 -1.66204 -0.65873 
1.02602 -1.65899 0.60941 
1.65836 -0.63297 1.00155 
1.66280 -0.63552 -1.05028 
0.00105 -2.05390 -0.02611 
0.63622 -1.02789 -1.68447 
-0.63292 -1.02796 -1.68511 
-1.02598 -1.66265 -0.66053 
0.62680 -1.02105 1.64395 
-0.63673 -1.02569 1.63883 
-1.02665 -1.66069 0.60638 
0.16710 -0.14315 2.23000 
-1.65999 0.63454 0.99859 
-1.66139 -0.63338 0.99852 
0.00166 -0.00155 -2.07626 
-1.66064 0.63357 -1.05280 
-1.66049 -0.63573 -1.05239 
-2.05316 -0.00036 -0.02723 
-0.00007 1.97192 0.54187 
0.52343 1.77137 0.86517 
0.32348 1.44693 1.38940 
-0.32274 1.44703 1.38947 
-0.52333 1.77079 0.86534 
0.00055 1.97253 -0.59926 
0.52480 1.77198 -0.92202 
0.32492 1.44738 -1.44439 
-0.32257 1.44735 -1.44457 
-0.52315 1.77184 -0.92225 
1.44907 1.41905 0.29626 
1.44997 1.41893 -0.35026 
1.97292 0.57134 -0.02526 
1.77194 0.89523 0.49727 
1.77369 0.89476 -0.54912 
1.97248 -0.57153 -0.02392 
1.44974 -1.41917 -0.34754 
1.44833 -1.41781 0.29944 
1.77102 -0.89407 0.49949 
1.77346 -0.89578 -0.54736 
0.52537 -1.77342 -0.91974 
0.00139 -1.97357 -0.59694 
0.32537 -1.44978 -1.44282 
-0.32209 -1.44986 -1.44321 
-0.52244 -1.77371 -0.92056 
0.52301 -1.76921 0.86853 
0.00045 -1.97100 0.54442 
0.32106 -1.44469 1.39255 
-0.32511 -1.44611 1.39098 
-0.52374 -1.77058 0.86669 
0.89534 0.52713 1.75206 
1.41672 0.32522 1.42272 
1.41687 -0.32217 1.42265 
0.89631 -0.52678 1.75065 
0.57900 0.00727 1.97171 
-0.90467 0.52792 1.74954 
-0.90656 -0.52739 1.75013 
-0.57894 0.00112 1.97888 
-1.42040 0.32434 1.42171 
-1.42162 -0.32248 1.42171 
0.89669 0.52215 -1.79574 
1.42044 0.32236 -1.47234 
1.42048 -0.32489 -1.47192 
0.89680 -0.52499 -1.79518 
0.57309 -0.00152 -1.99510 
-0.89370 0.52215 -1.79639 
-0.89358 -0.52502 -1.79598 
-0.56983 -0.00152 -1.99552 
-1.41774 0.32236 -1.47359 
-1.41766 -0.32495 -1.47335 
-1.44829 1.41836 0.29564 
-1.44864 1.41858 -0.35104 
-1.77143 0.89477 0.49588 
-1.77211 0.89467 -0.55060 
-1.97200 0.57119 -0.02729 
-1.44833 -1.42000 -0.35024 
-1.44855 -1.41910 0.29614 
-1.77212 -0.89488 0.49600 
-1.77196 -0.89627 -0.55014 
-1.97211 -0.57201 -0.02714 
0.55691 1.95227 0.27665 
-0.55673 1.95172 0.27671 
0.55743 1.95244 -0.33361 
-0.55660 1.95212 -0.33370 
0.89926 1.39399 1.17762 
1.05210 1.76342 -0.02787 
1.39413 1.20609 0.87282 
-0.00031 1.05276 1.74043 
1.20369 0.90106 1.36841 
0.29325 0.54980 1.95910 
-0.89913 1.39381 1.17738 
-0.31568 0.54961 1.95440 
-1.20574 0.90142 1.36709 
-1.05132 1.76280 -0.02809 
-1.39397 1.20550 0.87210 
0.90211 1.39435 -1.23191 
1.39683 1.20569 -0.92628 
0.00141 1.04957 -1.78730 
1.20783 0.89943 -1.41975 
0.30716 0.55495 -1.97521 
-0.89992 1.39426 -1.23244 
-0.30404 0.55495 -1.97541 
-1.20529 0.89942 -1.42065 
-1.39488 1.20559 -0.92724 
1.95100 0.30585 0.53121 
1.95317 0.30497 -0.58118 
1.95060 -0.30501 0.53202 
1.95306 -0.30631 -0.58057 
1.76057 0.00103 1.02531 
1.76447 -0.00104 -1.07512 
1.05210 -1.76267 -0.02456 
1.39691 -1.20722 -0.92435 
0.55804 -1.95256 -0.33070 
0.90245 -1.39635 -1.23009 
1.39282 -1.20400 0.87577 
0.55731 -1.95101 0.27992 
0.89726 -1.39132 1.18124 
1.20225 -0.89914 1.36995 
1.20799 -0.90181 -1.41858 
-0.55573 -1.95313 -0.33186 
-0.55607 -1.95196 0.27840 
0.00170 -1.05242 -1.78632 
0.30729 -0.55797 -1.97469 
-0.89946 -1.39661 -1.23129 
-0.30391 -0.55797 -1.97494 
-1.20505 -0.90196 -1.41996 
-1.05084 -1.76380 -0.02697 
-1.39453 -1.20764 -0.92641 
-0.00292 -1.04882 1.74470 
0.28936 -0.51985 1.97650 
-0.90132 -1.39369 1.17772 
-0.31389 -0.54340 1.95970 
-1.20848 -0.90054 1.36706 
-1.39553 -1.20542 0.87215 
-1.76256 0.00083 1.02298 
-1.95109 0.30567 0.52884 
-1.95143 -0.30530 0.52884 
-1.76224 -0.00109 -1.07704 
-1.95164 0.30493 -0.58334 
-1.95160 -0.30652 -0.58320 
-0.00006 1.87274 0.80509 
0.26091 1.77278 0.96625 
0.16136 1.61094 1.22732 
-0.16087 1.61081 1.22743 
-0.26084 1.77248 0.96638 
0.00075 1.87362 -0.86244 
0.26206 1.77362 -1.02334 
0.16246 1.61177 -1.28377 
-0.16035 1.61174 -1.28385 
-0.26031 1.77355 -1.02346 
1.61345 1.25777 0.13461 
1.61393 1.25767 -0.18776 
1.87458 0.83512 -0.02572 
1.77446 0.99662 0.23479 
1.77530 0.99640 -0.28688 
1.87401 -0.83513 -0.02380 
1.61348 -1.25769 -0.18514 
1.61273 -1.25707 0.13741 
1.77367 -0.99592 0.23714 
1.77489 -0.99684 -0.28477 
0.26269 -1.77534 -1.02126 
0.00149 -1.87515 -0.86032 
0.16301 -1.61396 -1.28202 
-0.15978 -1.61402 -1.28223 
-0.25962 -1.77547 -1.02164 
0.26046 -1.77096 0.96918 
0.00001 -1.87156 0.80756 
0.15992 -1.60913 1.23001 
-0.16233 -1.60973 1.22934 
-0.26130 -1.77174 0.96823 
1.00053 0.26336 1.75283 
1.25721 0.16288 1.58835 
1.25865 -0.15844 1.58728 
1.00549 -0.25997 1.74954 
0.83817 0.00225 1.86010 
-1.00943 0.26204 1.75222 
-1.01125 -0.26095 1.75203 
-0.84263 0.00067 1.86424 
-1.26255 0.16115 1.58825 
-1.26342 -0.15937 1.58817 
0.99812 0.25958 -1.79731 
1.25922 0.15997 -1.63611 
1.25924 -0.16267 -1.63592 
0.99817 -0.26244 -1.79702 
0.83679 -0.00148 -1.89672 
-0.99508 0.25958 -1.79808 
-0.99502 -0.26245 -1.79788 
-0.83361 -0.00147 -1.89737 
-1.25631 0.15997 -1.63718 
-1.25627 -0.16270 -1.63706 
-1.61250 1.25725 0.13367 
-1.61270 1.25731 -0.18876 
-1.77363 0.99619 0.23347 
-1.77398 0.99620 -0.28826 
-1.87355 0.83488 -0.02734 
-1.61259 -1.25854 -0.18816 
-1.61265 -1.25811 0.13414 
-1.77397 -0.99680 0.23373 
-1.77391 -0.99750 -0.28782 
-1.87365 -0.83580 -0.02708 
0.00000 2.03320 0.26113 
0.00034 2.03350 -0.31849 
0.28508 2.02820 0.11956 
-0.28489 2.02793 0.11959 
0.28530 2.02831 -0.17683 
-0.28477 2.02810 -0.17684 
0.78140 1.73393 0.74387 
1.25156 1.55503 0.45498 
0.80590 1.82884 0.44136 
0.98105 1.54312 0.90223 
1.04638 1.73724 0.29357 
1.22143 1.45180 0.75441 
0.48290 1.25047 1.52738 
0.77127 0.78355 1.71342 
0.78072 1.22034 1.42517 
0.32349 1.04723 1.71374 
0.92858 0.98190 1.51820 
0.46604 0.80193 1.81678 
-0.48266 1.25139 1.52697 
-0.77755 0.78690 1.71021 
-0.32445 1.04914 1.71265 
-0.78114 1.22113 1.42449 
-0.47235 0.80547 1.81364 
-0.93109 0.98350 1.51646 
-0.78119 1.73318 0.74396 
-1.25098 1.55423 0.45464 
-0.80563 1.82808 0.44141 
-0.98075 1.54244 0.90213 
-1.04585 1.73646 0.29344 
-1.22105 1.45105 0.75405 
0.78285 1.73430 -0.80020 
1.25277 1.55499 -0.50981 
0.80681 1.82902 -0.49778 
1.04709 1.73728 -0.34928 
0.98318 1.54340 -0.95747 
1.22348 1.45175 -0.80901 
0.48443 1.24996 -1.57984 
0.77480 0.78005 -1.75827 
0.78422 1.22070 -1.47704 
0.32331 1.04430 -1.76124 
0.93271 0.98037 -1.56828 
0.47180 0.80405 -1.85249 
-0.48186 1.24993 -1.58014 
-0.77192 0.78005 -1.75881 
-0.32051 1.04429 -1.76144 
-0.78173 1.22066 -1.47754 
-0.46885 0.80404 -1.85280 
-0.93004 0.98035 -1.56892 
-0.78129 1.73409 -0.80053 
-1.25137 1.55466 -0.51040 
-0.80564 1.82869 -0.49802 
-1.04598 1.73684 -0.34962 
-0.98133 1.54324 -0.95799 
-1.22173 1.45156 -0.80970 
2.03345 0.29005 -0.02483 
2.03321 -0.29038 -0.02414 
2.02741 0.14847 0.25998 
2.02858 0.14798 -0.30933 
2.02724 -0.14827 0.26036 
2.02849 -0.14888 -0.30900 
1.73325 0.77346 0.75504 
1.55245 0.48400 1.22484 
1.54222 0.93129 0.95452 
1.44972 0.78324 1.19493 
1.82723 0.47070 0.77961 
1.73477 0.32271 1.01961 
1.73596 0.77263 -0.80663 
1.55651 0.48190 -1.27552 
1.54545 0.93041 -1.00682 
1.45366 0.78170 -1.24653 
1.83020 0.46952 -0.83029 
1.73848 0.32088 -1.07012 
1.25280 -1.55550 -0.50708 
0.78330 -1.73543 -0.79772 
1.04726 -1.73733 -0.34627 
1.22363 -1.45295 -0.80669 
0.80723 -1.82945 -0.49494 
0.98351 -1.54488 -0.95525 
1.25085 -1.55332 0.45844 
0.78090 -1.73169 0.74748 
1.04613 -1.73575 0.29709 
1.22033 -1.44962 0.75785 
0.80583 -1.82709 0.44490 
0.97987 -1.54064 0.90590 
1.73228 -0.77189 0.75700 
1.55193 -0.48159 1.22565 
1.82657 -0.46922 0.78084 
1.73429 -0.32067 1.02040 
1.54103 -0.92931 0.95677 
1.44868 -0.78111 1.19647 
1.73587 -0.77417 -0.80525 
1.55655 -0.48418 -1.27483 
1.83012 -0.47120 -0.82944 
1.73847 -0.32292 -1.06960 
1.54548 -0.93219 -1.00532 
1.45374 -0.78388 -1.24540 
0.00124 -2.03399 -0.31602 
0.00079 -2.03265 0.26371 
0.28609 -2.02826 -0.17401 
0.28581 -2.02753 0.12250 
-0.28383 -2.02861 -0.17465 
-0.28402 -2.02798 0.12177 
0.48478 -1.25253 -1.57850 
0.77498 -0.78284 -1.75744 
0.78454 -1.22311 -1.47561 
0.93293 -0.98293 -1.56713 
0.32359 -1.04710 -1.76020 
0.47200 -0.80695 -1.85169 
-0.48148 -1.25261 -1.57903 
-0.77172 -0.78289 -1.75817 
-0.32022 -1.04713 -1.76052 
-0.78136 -1.22325 -1.47652 
-0.46864 -0.80697 -1.85212 
-0.92977 -0.98303 -1.56813 
-0.78061 -1.73589 -0.79902 
-1.25089 -1.55625 -0.50936 
-0.80490 -1.83010 -0.49648 
-0.98079 -1.54529 -0.95675 
-1.04538 -1.73819 -0.34837 
-1.22126 -1.45348 -0.80865 
0.47958 -1.24787 1.53109 
0.76892 -0.78377 1.71448 
0.77756 -1.21758 1.42892 
0.92613 -0.98051 1.52012 
0.31968 -1.04365 1.71853 
0.45852 -0.79376 1.82538 
-0.48586 -1.25064 1.52808 
-0.78015 -0.78633 1.71118 
-0.32785 -1.04753 1.71477 
-0.78411 -1.22062 1.42504 
-0.47401 -0.80290 1.81664 
-0.93418 -0.98291 1.51679 
-0.78159 -1.73336 0.74491 
-1.25131 -1.55485 0.45520 
-0.80541 -1.82848 0.44258 
-1.04568 -1.73716 0.29437 
-0.98197 -1.54263 0.90259 
-1.22210 -1.45135 0.75435 
0.40033 0.01559 2.09626 
-0.07643 -0.15807 2.25157 
0.23457 0.13646 2.18074 
0.01115 0.40948 2.11524 
0.32588 -0.24903 2.08966 
-0.16522 -0.38684 2.10144 
-1.55445 0.48352 1.22348 
-1.73322 0.77303 0.75360 
-1.45107 0.78297 1.19370 
-1.54249 0.93083 0.95342 
-1.73610 0.32241 1.01774 
-1.82761 0.47042 0.77768 
-1.55592 -0.48184 1.22342 
[...]
CELL_DATA 1942
SCALARS Strain double 
LOOKUP_TABLE default 
-0.08734
-0.08797
-0.08678
-0.08708
-0.08804
-0.08823
-0.08713
-0.08754
-0.08780
-0.08695
-0.08776
-0.08720
-0.08725
-0.08786
-0.08816
-0.08772
-0.08743
-0.08794
-0.08758
-0.08779
-0.08706
-0.08821
-0.08778
-0.08761
-0.08716
-0.08814
-0.08738
-0.08691
-0.08684
-0.08783
-0.09136
-0.08277
-0.07782
-0.09345
-0.08549
-0.09532
-0.09617
-0.08164
-0.07787
-0.07672
-0.08745
-0.08763
-0.08753
-0.08751
-0.08756
-0.08749
-0.08742
-0.08759
-0.08757
-0.08767
-0.08775
-0.08746
-0.08792
-0.08796
-0.08747
-0.08706
-0.08807
-0.08790
-0.08841
-0.08716
-0.03537
-0.03540
0.06977
0.07024
0.07025
0.06966
-0.03475
-0.03451
0.07019
0.07007
0.06893
0.06981
-0.02815
-0.04315
0.08232
0.05585
0.07334
0.09415
-0.02937
-0.04046
0.05925
0.07513
0.08118
0.07562
-0.03489
-0.03462
0.06985
0.06978
0.06911
0.06919
-0.03349
-0.03348
0.07001
0.06833
0.06851
0.06998
-0.03400
-0.03398
0.06908
0.06984
0.06980
0.06921
-0.03420
-0.03413
0.06985
0.06924
0.06935
0.06979
-0.03340
-0.03350
0.06954
0.06862
0.06876
0.06962
-0.03402
-0.03413
0.06913
0.06936
0.06938
0.06922
-0.03377
-0.03370
0.06855
0.06999
0.06962
0.06848
-0.03458
-0.03448
0.06999
0.06964
0.06956
0.06994
-0.03356
-0.03350
0.06890
0.06940
0.06934
0.06894
-0.03486
-0.03527
0.06987
0.06873
0.06968
0.07089
-0.03451
-0.03511
0.06975
0.06890
0.06857
0.07022
-0.03430
-0.03425
0.06950
0.06974
0.06966
0.06960
-0.03524
-0.03519
0.06954
0.07000
0.06997
0.06969
-0.03420
-0.03415
0.06930
0.06980
0.06984
0.06939
-0.03402
-0.03398
0.06982
0.06907
0.06921
0.06978
-0.03347
-0.03343
0.06978
0.06844
0.06823
0.06979
-0.02716
-0.05234
0.08900
0.08386
0.05199
0.11556
-0.02847
-0.04295
0.05852
0.07801
0.08970
0.07684
-0.03473
-0.03471
0.07035
0.06842
0.06902
0.07026
0.03661
-0.18680
-0.03113
0.08888
-0.21350
0.01841
-0.03481
-0.03453
0.06938
0.06881
0.06855
0.06983
-0.03395
-0.03392
0.06778
0.07009
0.06927
0.06817
-0.03405
-0.03405
0.06941
0.06951
0.06952
0.06941
-0.03439
-0.03447
0.06947
0.06992
0.06998
0.06930
-0.03464
-0.03478
0.06962
0.07002
0.07005
0.06952
-0.03382
-0.03374
0.06940
0.06860
0.06875
0.06931
-0.06611
-0.04596
0.07978
0.08005
0.03443
0.03397
-0.06602
-0.04544
0.08000
0.08057
0.03377
0.03463
-0.06419
-0.04321
0.08205
0.07799
0.03260
0.03732
-0.06516
-0.04492
0.07868
0.08152
0.03642
0.03385
-0.06617
-0.04560
0.07992
0.08043
0.03387
0.03402
-0.06656
-0.04611
0.08052
0.08003
0.03456
0.03497
-0.06508
-0.04436
0.08034
0.07894
0.03308
0.03450
-0.06554
-0.04485
0.07919
0.08040
0.03464
0.03375
-0.06581
-0.04509
0.08043
0.07942
0.03396
0.03471
-0.06488
-0.04420
0.07987
0.07916
0.03326
0.03412
-0.06587
-0.04526
0.07897
0.08031
0.03479
0.03385
-0.06508
-0.04434
0.07878
0.08019
0.03439
0.03322
-0.06533
-0.04474
0.07928
0.07972
0.03400
0.03364
-0.06576
-0.04484
0.07998
0.07931
0.03368
0.03398
-0.06623
-0.04551
0.08028
0.07986
0.03439
0.03463
-0.06577
-0.04506
0.07960
0.07975
0.03399
0.03394
-0.06531
-0.04450
0.07948
0.07960
0.03379
0.03373
-0.06612
-0.04557
0.07973
0.07954
0.03422
0.03435
-0.06559
-0.04502
0.07959
0.07926
0.03350
0.03393
-0.06585
-0.04517
0.07984
0.07974
0.03422
0.03432
-0.06500
-0.04431
0.07982
0.07921
0.03338
0.03405
-0.06650
-0.04601
0.07998
0.08030
0.03475
0.03452
-0.06579
-0.04509
0.07943
0.08038
0.03467
0.03397
-0.06559
-0.04489
0.08036
0.07921
0.03377
0.03463
-0.06510
-0.04436
0.08016
0.07896
0.03308
0.03436
-0.06647
-0.04600
0.07991
0.08118
0.03437
0.03407
-0.06606
-0.04581
0.07997
0.07974
0.03382
0.03429
-0.06432
-0.04317
0.08312
0.07791
0.03300
0.03959
-0.06448
-0.04440
0.07865
0.08158
0.03892
0.03446
-0.06576
-0.04522
0.07999
0.07989
0.03339
0.03456
-0.05720
-0.04557
0.08401
0.06503
0.03438
0.04533
-0.06549
-0.04468
0.08105
0.07908
0.03372
0.03566
-0.06719
-0.04656
0.08199
0.07851
0.03375
0.03700
-0.04288
-0.04014
0.08475
0.05069
0.02622
0.05109
-0.06297
-0.27640
0.09053
0.14440
0.02650
0.02621
-0.05115
-0.03331
0.06661
0.07374
0.02481
0.02558
-0.04955
-0.03463
0.06504
0.07485
0.02805
0.02682
-0.04538
0.13224
0.14067
0.02655
0.02607
-0.06515
-0.04578
0.07527
0.07927
0.03656
0.03394
-0.06481
-0.04493
0.07485
0.07978
0.03712
0.03272
-0.06546
-0.04480
0.07989
0.07967
0.03389
0.03425
-0.06576
-0.04520
0.07985
0.08006
0.03443
0.03416
-0.06562
-0.04502
0.08000
0.07979
0.03406
0.03428
-0.06556
-0.04494
0.07987
0.07980
0.03406
0.03424
-0.06556
-0.04488
0.07973
0.07984
0.03418
0.03408
-0.06553
-0.04491
0.07977
0.07981
0.03421
0.03400
-0.06544
-0.04479
0.07965
0.07985
0.03422
0.03386
-0.06559
-0.04490
0.07983
0.07973
0.03408
0.03418
-0.06569
-0.04513
0.07972
0.08011
0.03440
0.03395
-0.06583
-0.04532
0.07981
0.08014
0.03448
0.03410
-0.06592
-0.04537
0.07920
0.07982
0.03442
0.03380
-0.06531
-0.04447
0.07906
0.07995
0.03409
0.03346
-0.06593
-0.04525
0.07951
0.07971
0.03392
0.03364
-0.06603
-0.04535
0.08012
0.07955
0.03417
0.03457
-0.06548
-0.04474
0.07965
0.07933
0.03351
0.03386
-0.06496
-0.04426
0.07856
0.08000
0.03413
0.03303
-0.06629
-0.04566
0.07868
0.08081
0.03508
0.03336
-0.06580
-0.04492
0.08054
0.07865
0.03280
0.03439
-0.06647
-0.04573
0.08021
0.07987
0.03442
0.03470
-0.06517
-0.04452
0.07880
0.07973
0.03401
0.03324
0.07239
0.07256
0.02077
0.01942
0.01594
0.01755
0.07268
0.07256
0.02020
0.01966
0.01621
0.01697
0.07271
0.07261
0.02098
0.01920
0.01590
0.01789
0.07208
0.07203
0.02130
0.01941
0.01615
0.01808
0.07465
0.07830
0.02135
0.01768
0.01674
0.01554
0.07090
0.07076
0.02115
0.02068
0.01750
0.01796
0.07182
0.07130
0.02090
0.02005
0.01690
0.01868
0.07883
0.08015
0.02381
0.02239
0.01462
0.02064
0.07406
0.07329
0.02312
0.01875
0.01518
0.01966
0.11941
-0.11281
0.07613
0.02643
0.05934
0.02611
0.07486
0.07331
0.01887
0.02034
0.01497
0.01759
0.10026
0.21295
0.05423
0.02582
0.08274
0.02561
0.07316
0.07212
0.01651
0.02177
0.01681
0.01588
0.07124
0.07110
0.02096
0.02027
0.01698
0.01798
0.07137
0.07128
0.02028
0.02020
0.01718
0.01691
0.07122
0.07141
0.02078
0.02092
0.01772
0.01760
0.07250
0.07251
0.01967
0.02080
0.01768
0.01663
0.07238
0.07238
0.02018
0.02036
0.01724
0.01709
0.07226
0.07221
0.02009
0.02077
0.01760
0.01678
0.07181
0.07188
0.02059
0.02048
0.01728
0.01743
0.07161
0.07144
0.02097
0.02047
0.01736
0.01772
0.07193
0.07199
0.02058
0.02037
0.01715
0.01742
0.07221
0.07211
0.02021
0.02067
0.01744
0.01692
0.07223
0.07234
0.01987
0.02067
0.01763
0.01681
0.07158
0.07169
0.02034
0.02018
0.01693
0.01715
0.07190
0.07198
0.02003
0.02088
0.01762
0.01695
0.07194
0.07203
0.02019
0.01988
0.01682
0.01685
0.07182
0.07192
0.02027
0.02062
0.01753
0.01713
0.07161
0.07174
0.02020
0.01993
0.01700
0.01674
0.07238
0.07231
0.02042
0.02030
0.01704
0.01718
0.07152
0.07182
0.01998
0.02081
0.01783
0.01668
0.07199
0.07208
0.02007
0.02074
0.01765
0.01696
0.07185
0.07192
0.01961
0.02109
0.01790
0.01645
0.07156
0.07169
0.02038
0.02095
0.01772
0.01726
0.07065
0.07058
0.02082
0.02048
0.01774
0.01755
0.07243
0.07249
0.02010
0.01996
0.01667
0.01660
0.07547
0.08022
0.02018
0.01822
0.01827
0.01295
0.07455
0.07793
0.02034
0.01799
0.01686
0.01457
0.07219
0.07226
0.02055
0.02030
0.01704
0.01732
0.07243
0.07235
0.02095
0.01921
0.01592
0.01789
0.07236
0.07258
0.02060
0.01929
0.01593
0.01735
0.07237
0.07236
0.02037
0.02021
0.01711
0.01725
0.07196
0.07200
0.02059
0.02038
0.01716
0.01742
0.07139
0.07117
0.02092
0.02067
0.01754
0.01773
0.07182
0.07188
0.02057
0.02049
0.01729
0.01742
0.07224
0.07219
0.02003
0.02079
0.01758
0.01669
0.07062
0.07066
0.02040
0.02128
0.01801
0.01724
0.07237
0.07246
0.01951
0.02083
0.01770
0.01651
0.07468
0.08336
0.02752
0.03110
0.03727
0.01725
0.18071
-0.01801
0.11185
0.02620
0.12368
0.02608
0.07508
0.07266
0.01879
0.02157
0.01629
0.01721
0.11828
-0.14254
0.06818
0.02564
0.08697
0.02609
0.07298
0.07102
0.01727
0.02260
0.01807
0.01603
0.07293
0.07291
0.01988
0.01911
0.01633
0.01667
0.07141
0.07162
0.02039
0.01894
0.01599
0.01739
0.07227
0.07209
0.02001
0.01968
0.01628
0.01698
0.07081
0.07096
0.02046
0.02043
0.01738
0.01714
0.07253
0.07255
0.02013
0.02034
0.01707
0.01680
0.07162
0.07142
0.02095
0.02014
0.01700
0.01783
0.07192
0.07183
0.02105
0.01968
0.01664
0.01786
0.07103
0.07107
-0.00580
-0.00609
0.07203
-0.00582
-0.00526
0.06983
-0.00680
-0.00427
0.07210
-0.00389
-0.00648
-0.00576
-0.00576
0.07156
0.07117
-0.00532
-0.00500
0.07037
-0.00666
-0.00552
0.07173
-0.00521
-0.00613
0.07058
-0.00589
-0.00510
-0.00656
-0.00587
0.07026
0.07153
-0.00518
-0.00614
0.07134
-0.00571
-0.00656
0.07051
0.07104
-0.00593
-0.00633
-0.00620
-0.00556
-0.00544
-0.00532
0.07075
0.07108
-0.00579
-0.00599
0.07088
0.07081
-0.00616
-0.00607
0.07090
-0.00562
-0.00571
-0.00612
-0.00617
-0.00581
-0.00556
0.07116
0.07057
-0.00650
-0.00588
0.07142
-0.00517
-0.00535
0.07166
-0.00517
-0.00591
0.07040
-0.00610
-0.00523
-0.00664
-0.00563
0.07109
0.07239
-0.00554
-0.00553
0.07102
-0.00621
-0.00580
0.06990
-0.00689
-0.00339
0.07182
-0.00367
-0.00615
-0.00602
-0.00545
0.06569
0.08116
-0.00993
-0.02041
0.06683
-0.00259
-0.00429
0.05370
-0.01018
0.00511
0.09601
-0.01891
-0.04327
-0.01044
-0.02106
0.09454
0.05581
-0.03750
-0.01226
0.09848
0.05385
-0.04150
-0.01294
-0.02454
-0.02719
0.06413
0.00088
-0.00736
0.00195
-0.00871
0.07108
0.07100
-0.00591
-0.00572
0.07120
-0.00556
-0.00574
0.07102
-0.00584
-0.00565
0.07111
-0.00577
-0.00572
-0.00568
-0.00577
0.07110
0.07097
-0.00576
-0.00582
0.07099
0.07103
-0.00575
-0.00595
-0.00576
-0.00567
0.07126
-0.00559
-0.00591
-0.00552
-0.00579
0.07047
0.07110
-0.00552
-0.00613
0.07117
-0.00587
-0.00633
0.07081
-0.00604
-0.00588
0.07077
-0.00569
-0.00547
-0.00620
-0.00610
0.07005
0.07120
-0.00601
-0.00678
0.07184
-0.00494
-0.00633
0.07008
-0.00674
-0.00533
0.07110
-0.00536
-0.00528
-0.00592
-0.00667
0.05687
0.05631
0.07735
0.07776
0.05667
0.05713
0.07802
0.07747
-0.01597
-0.01722
0.05020
-0.01582
-0.01707
0.04956
-0.01731
0.05010
-0.01718
0.05043
0.05573
0.05695
0.07771
0.07770
0.05693
0.05630
0.07647
0.07766
-0.01475
-0.01607
0.04850
-0.01526
-0.01738
0.04919
-0.01607
0.05033
-0.01652
0.05084
0.05014
0.05746
0.08025
0.07631
0.06137
0.07163
0.08224
0.07585
-0.01864
-0.01389
0.05006
0.00216
-0.01336
0.03919
-0.01837
0.05435
-0.03997
0.02363
0.05207
0.05257
0.07858
0.07745
0.07165
0.04866
0.05485
0.07726
0.00399
-0.01479
0.02970
-0.01842
-0.01518
0.05166
-0.02909
0.02186
-0.01346
0.04764
0.05588
0.05629
0.07749
0.07744
0.05655
0.05609
0.07667
0.07715
-0.01515
-0.01652
0.04881
-0.01498
-0.01701
0.04844
-0.01639
0.05021
-0.01642
0.04968
0.05515
0.05674
0.07778
0.07628
0.05671
0.05531
0.07609
0.07769
-0.01395
-0.01539
0.04832
-0.01533
0.05006
-0.01408
-0.01547
0.05005
-0.01550
0.04882
0.05670
0.05594
0.07672
0.07770
0.05596
0.05651
0.07742
0.07701
-0.01439
-0.01580
0.04999
-0.01457
-0.01600
0.04938
-0.01578
0.04915
-0.01594
0.04987
0.05612
0.05673
0.07773
0.07692
0.05649
0.05609
0.07713
0.07737
-0.01473
-0.01619
0.04953
-0.01458
-0.01604
0.04999
-0.01606
0.04987
-0.01591
0.04931
0.05540
0.05635
0.07729
0.07651
0.05630
0.05556
0.07640
0.07738
-0.01388
-0.01520
0.04862
-0.01540
0.04954
-0.01407
-0.01539
0.04975
-0.01558
0.04903
0.05617
0.05590
0.07677
0.07711
0.05603
0.05613
0.07709
0.07707
-0.01480
-0.01608
0.04954
-0.01441
-0.01570
0.04932
-0.01630
0.04926
-0.01590
0.04948
0.05613
0.05568
0.07687
0.07693
0.05510
0.05706
0.07849
0.07611
-0.01361
-0.01547
0.04977
-0.01495
0.04815
-0.01485
-0.01608
0.04911
-0.01688
0.04945
0.05649
0.05679
0.07776
0.07730
0.05669
0.05633
0.07732
0.07759
-0.01511
-0.01662
0.04990
-0.01638
0.05005
-0.01496
-0.01645
0.05005
-0.01626
0.04960
0.05604
0.05580
0.07676
0.07709
0.05559
0.05621
0.07717
0.07663
-0.01400
-0.01551
0.04928
-0.01410
-0.01558
0.04920
-0.01536
0.04893
-0.01545
0.04959
0.05630
0.05686
0.07733
0.07675
0.05658
0.05610
0.07741
0.07847
-0.01550
-0.01669
0.05005
-0.01499
-0.01640
0.05074
-0.01686
0.04937
-0.01743
0.04750
0.05548
0.05652
0.07723
0.07632
0.05657
0.05630
0.07752
0.07796
-0.01528
-0.01632
0.04903
-0.01708
0.04960
-0.01538
-0.01609
0.05063
-0.01834
0.04814
0.05648
0.05644
0.07726
0.07731
0.05626
0.05646
0.07747
0.07727
-0.01476
-0.01619
0.04989
-0.01610
0.04951
-0.01483
-0.01628
0.04987
-0.01616
0.04973
0.05688
0.05660
0.07738
0.07776
0.05616
0.05664
0.07758
0.07728
-0.01557
-0.01699
0.05022
-0.01679
0.04935
-0.01587
-0.01723
0.05007
-0.01716
0.04994
0.05672
0.05615
0.07696
0.07770
0.05616
0.05651
0.07741
0.07717
-0.01464
-0.01608
0.05000
-0.01598
0.04940
-0.01472
-0.01617
0.04955
-0.01607
0.04987
0.05596
0.05670
0.07768
0.07672
0.05649
0.05594
0.07700
0.07739
-0.01457
-0.01600
0.04940
-0.01442
-0.01585
0.04999
-0.01593
0.04985
-0.01578
0.04911
0.05511
0.05657
0.07757
0.07626
0.05647
0.05518
0.07593
0.07749
-0.01392
-0.01539
0.04827
-0.01405
-0.01546
0.04993
-0.01525
0.04980
-0.01545
0.04872
0.05068
0.06247
0.08228
0.07637
0.05617
0.09484
0.08891
0.06549
-0.02302
-0.01488
0.05432
-0.01727
0.05158
0.01325
-0.00903
0.04901
-0.06196
-0.00382
0.05551
0.05236
0.07967
0.07794
0.07643
0.05070
0.05736
0.07852
0.00474
-0.01516
0.03772
-0.01821
-0.01393
0.05162
-0.03702
0.02009
-0.01343
0.04816
0.05523
0.05719
0.07776
0.07664
0.05717
0.05542
0.07604
0.07826
-0.01492
-0.01613
0.04829
-0.01634
0.05042
-0.01526
-0.01699
0.04987
-0.01699
0.04902
-0.26341
-0.08706
0.03044
0.14411
-0.15832
-0.04489
0.03148
0.23473
-0.10007
-0.18580
-0.29591
-0.05604
0.27287
-0.02652
0.05640
0.05662
0.07620
0.07651
0.05622
0.05546
0.07658
0.07736
-0.01538
-0.01804
0.04920
-0.01628
0.04964
-0.01563
-0.01759
0.04993
-0.01668
0.04897
0.05739
0.05500
0.07500
0.07699
0.05473
0.05628
0.07783
0.07595
-0.01506
-0.01750
0.05070
-0.01622
0.04830
-0.01454
-0.01630
0.04833
-0.01593
0.04936
0.05631
0.05621
0.07714
0.07725
0.05621
0.05631
0.07725
0.07715
-0.01452
-0.01592
0.04962
-0.01593
0.04951
-0.01453
-0.01592
0.04952
-0.01593
0.04963
0.05665
0.05610
0.07717
0.07764
0.05630
0.05679
0.07764
0.07701
-0.01498
-0.01627
0.04992
-0.01646
0.04979
-0.01489
-0.01620
0.04927
-0.01635
0.05017
0.05674
0.05628
0.07728
0.07769
0.05649
0.05688
0.07775
0.07728
-0.01525
-0.01648
0.05004
-0.01679
0.04990
-0.01519
-0.01643
0.04952
-0.01672
0.05022
0.05551
0.05606
0.07713
0.07660
0.05618
0.05546
0.07626
0.07709
-0.01454
-0.01605
0.04868
-0.01583
0.04966
-0.01411
-0.01557
0.04938
-0.01547
0.04893
-0.01801
-0.01722
-0.01789
-0.01764
0.08584
0.08599
-0.01820
-0.01637
0.08746
-0.01454
-0.01568
0.08495
-0.01750
-0.01782
0.08632
-0.01833
-0.01666
-0.01823
-0.01640
0.08625
0.08569
-0.01667
-0.01700
0.08484
-0.01724
-0.01747
0.08608
-0.01730
-0.01655
0.08506
-0.01723
-0.01656
-0.01768
-0.01718
0.08446
0.08561
-0.01677
-0.01793
0.08607
-0.01716
-0.01732
-0.01682
-0.01773
0.08511
0.08553
-0.01758
-0.01732
-0.01719
-0.01742
0.08548
0.08550
-0.01686
-0.01775
-0.01688
-0.01752
0.08530
0.08554
-0.01764
-0.01710
0.08471
-0.01657
-0.01811
-0.01662
-0.01732
0.08558
0.08513
-0.01829
-0.01668
0.08601
-0.01744
-0.01726
0.08605
-0.01708
-0.01667
0.08483
-0.01790
-0.01762
-0.01832
-0.01707
0.08588
0.08840
-0.01805
-0.01723
0.08582
-0.01298
-0.01412
0.08384
-0.01681
-0.01742
0.08566
-0.01757
-0.01719
0.00749
-0.04933
0.08842
0.03826
-0.01949
-0.01840
0.08613
-0.02267
-0.01299
0.08991
0.04106
-0.10814
0.00964
0.02679
-0.09151
-0.01151
-0.02146
0.02650
0.08460
0.03167
-0.10193
-0.01158
-0.02100
0.01806
0.08446
-0.01952
-0.01835
0.08550
-0.01698
-0.01746
-0.01713
-0.01713
0.08571
0.08543
-0.01737
-0.01724
0.08586
-0.01728
-0.01713
0.08568
-0.01723
-0.01714
0.08556
-0.01722
-0.01716
-0.01706
-0.01737
0.08554
0.08562
-0.01711
-0.01716
-0.01696
-0.01753
0.08543
0.08568
-0.01731
-0.01748
0.08601
-0.01747
-0.01677
-0.01759
-0.01745
0.08479
0.08516
-0.01693
-0.01773
0.08586
-0.01773
-0.01734
0.08563
-0.01758
-0.01684
0.08513
-0.01641
-0.01756
-0.01670
-0.01813
0.08422
0.08597
-0.01829
-0.01754
0.08654
-0.01727
-0.01693
0.08447
-0.01804
-0.01667
0.08549
0.04896
0.04888
0.04703
0.04910
0.04826
0.04737
0.05126
0.04724
0.04876
0.09689
-0.00485
-0.02889
0.04816
0.04891
0.04737
0.04773
0.04879
0.04869
0.04862
0.04820
0.04832
0.04792
0.04864
0.04858
0.04796
0.04830
0.04788
0.04827
0.04816
0.04871
0.04780
0.04802
0.04892
0.04840
0.04804
0.04868
0.04606
0.05007
0.05074
0.04861
0.04897
0.04694
0.04861
0.04834
0.04821
0.04766
0.04869
0.04873
0.10683
-0.02159
-0.01773
0.04779
0.04806
0.04908
0.04793
0.04856
0.04723
0.04895
0.04784
0.04817
-0.24905
-0.17943
0.01169
-0.01131
0.13022
0.14094
-0.15651
-0.06589
0.56118
-0.08934
0.16746
-0.21956
-0.24841
-0.15666
0.02480
-0.14521
-0.18520
-0.01011
0.00023
0.11560
-0.21675
-0.12917
-0.19609
-0.01804
-0.20099
0.13353
0.10000
