# vtk DataFile Version 3.0
Point representing Sub_cellular elem model
ASCII

DATASET UNSTRUCTURED_GRID
POINTS 749 float
0.00840 1.71479 0.60770 
0.00640 1.73088 -1.54840 
1.74908 1.06659 -0.47487 
1.74985 -1.08766 -0.47647 
0.00642 -1.75192 -1.54977 
0.01273 -1.74718 0.60265 
1.09635 -0.00966 1.27588 
-1.04976 -0.02031 1.29378 
1.08374 -0.01001 -2.21450 
-1.06948 -0.01052 -2.21481 
-1.72917 1.06067 -0.46908 
-1.73083 -1.08549 -0.47072 
0.00631 2.03651 -0.47012 
1.03128 1.64504 0.16184 
0.64266 1.00581 1.20067 
-0.61282 0.99396 1.21383 
-1.01239 1.63665 0.16719 
1.03283 1.65054 -1.10698 
0.64142 1.01659 -2.13330 
-0.62760 1.01606 -2.13349 
-1.01908 1.64750 -1.10513 
2.06198 -0.01026 -0.47702 
1.66955 0.62376 0.54870 
1.66850 0.62477 -1.50044 
1.03305 -1.67149 -1.10884 
1.03493 -1.66975 0.15888 
1.67243 -0.64493 0.54732 
1.66841 -0.64501 -1.50110 
0.00716 -2.06127 -0.47325 
0.64129 -1.03672 -2.13402 
-0.62754 -1.03680 -2.13395 
-1.01935 -1.67047 -1.10687 
0.65131 -1.03216 1.19662 
-0.61242 -1.03775 1.19688 
-1.01405 -1.66683 0.16277 
0.05105 0.63442 2.07980 
-1.63619 0.61505 0.56044 
-1.63931 -0.64332 0.55746 
0.00727 -0.01007 -2.52534 
-1.65365 0.62297 -1.49867 
-1.65370 -0.64516 -1.49905 
-2.04007 -0.01189 -0.47005 
0.00702 1.94969 0.10198 
0.52905 1.75002 0.42419 
0.33132 1.42232 0.95145 
-0.31052 1.41770 0.95494 
-0.51209 1.74451 0.42728 
0.00618 1.95920 -1.04260 
0.52988 1.76120 -1.36711 
0.33029 1.43816 -1.89098 
-0.31699 1.43772 -1.89094 
-0.51706 1.75988 -1.36655 
1.45421 1.40700 -0.15045 
1.45491 1.40859 -0.79717 
1.98024 0.56183 -0.47616 
1.77933 0.88464 0.04742 
1.77953 0.88562 -0.99814 
1.98062 -0.58249 -0.47705 
1.45539 -1.42961 -0.79903 
1.45619 -1.42925 -0.15273 
1.78114 -0.90602 0.04583 
1.77959 -0.90611 -0.99927 
0.52996 -1.78214 -1.36877 
0.00644 -1.98144 -1.04473 
0.33020 -1.45856 -1.89198 
-0.31697 -1.45848 -1.89181 
-0.51702 -1.78171 -1.36807 
0.53386 -1.77862 0.42018 
0.00916 -1.97826 0.09791 
0.33981 -1.45497 0.94542 
-0.30595 -1.45489 0.94645 
-0.51093 -1.77704 0.42216 
0.91471 0.51377 1.30772 
1.43221 0.31330 0.97097 
1.43520 -0.33344 0.96962 
0.92187 -0.53676 1.30327 
0.59529 -0.01063 1.54882 
-0.87227 0.49931 1.33030 
-0.87287 -0.54238 1.31696 
-0.54821 -0.03234 1.56810 
-1.39097 0.30428 0.98702 
-1.39276 -0.33636 0.98337 
0.90226 0.51367 -2.24430 
1.42604 0.31371 -1.92148 
1.42599 -0.33380 -1.92176 
0.90218 -0.53369 -2.24470 
0.57869 -0.00999 -2.44416 
-0.88812 0.51314 -2.24469 
-0.88805 -0.53400 -2.24486 
-0.56427 -0.01026 -2.44454 
-1.41181 0.31278 -1.92120 
-1.41176 -0.33430 -1.92132 
-1.43396 1.39907 -0.14431 
-1.43876 1.40382 -0.79335 
-1.75357 0.87695 0.05577 
-1.76278 0.88213 -0.99422 
-1.95870 0.55747 -0.46950 
-1.43973 -1.42791 -0.79520 
-1.43631 -1.42610 -0.14724 
-1.75633 -0.90332 0.05362 
-1.76336 -0.90533 -0.99515 
-1.95981 -0.58159 -0.47040 
0.56184 1.93477 -0.16542 
-0.54761 1.93063 -0.16324 
0.56229 1.93882 -0.77703 
-0.54934 1.93627 -0.77570 
0.90538 1.37568 0.73463 
1.05655 1.75026 -0.47241 
1.40063 1.19280 0.42557 
0.01209 1.02626 1.31299 
1.21417 0.88714 0.92090 
0.32152 0.53191 1.54336 
-0.88136 1.36528 0.74273 
-0.28326 0.51666 1.56464 
-1.18008 0.87472 0.93512 
-1.04113 1.74469 -0.46894 
-1.37414 1.18215 0.43478 
0.90728 1.38511 -1.67869 
1.40203 1.19650 -1.37384 
0.00696 1.04088 -2.23500 
1.21325 0.89077 -1.86786 
0.31278 0.54652 -2.42372 
-0.89387 1.38371 -1.67818 
-0.29843 0.54636 -2.42395 
-1.19936 0.88959 -1.86757 
-1.38769 1.19400 -1.37204 
1.96073 0.29561 0.07848 
1.95974 0.29576 -1.03192 
1.96140 -0.31619 0.07792 
1.95973 -0.31614 -1.03230 
1.77404 -0.01003 0.57112 
1.77037 -0.01011 -1.52539 
1.05789 -1.77269 -0.47498 
1.40196 -1.21689 -1.37511 
0.56299 -1.96119 -0.77953 
0.90716 -1.40545 -1.67990 
1.40486 -1.21608 0.42323 
0.56400 -1.95983 -0.16874 
0.91221 -1.40237 0.73157 
1.22043 -0.91077 0.91834 
1.21311 -0.91091 -1.86865 
-0.54935 -1.96025 -0.77825 
-0.54749 -1.95833 -0.16696 
0.00690 -1.06117 -2.23556 
0.31272 -0.56660 -2.42405 
-0.89381 -1.40518 -1.67907 
-0.29843 -0.56671 -2.42419 
-1.19927 -0.91101 -1.86798 
-1.04210 -1.77055 -0.47185 
-1.38784 -1.21636 -1.37298 
0.02499 -1.06473 1.29871 
0.32638 -0.54685 1.53582 
-0.88302 -1.40084 0.73489 
-0.27670 -0.57986 1.52668 
-1.18373 -0.90945 0.92688 
-1.37781 -1.21250 0.43018 
-1.73830 -0.01348 0.58312 
-1.93239 0.29123 0.08792 
-1.93358 -0.31636 0.08715 
-1.75531 -0.01109 -1.52351 
-1.94235 0.29368 -1.02776 
-1.94257 -0.31661 -1.02805 
0.00761 1.84843 0.36590 
0.26776 1.74891 0.52665 
0.16939 1.58516 0.78909 
-0.15089 1.58313 0.79036 
-0.25121 1.74599 0.52823 
0.00627 1.86178 -1.30673 
0.26736 1.76287 -1.46841 
0.16784 1.60193 -1.72966 
-0.15481 1.60165 -1.72960 
-0.25462 1.76226 -1.46820 
1.61901 1.24695 -0.31321 
1.61927 1.24753 -0.63553 
1.88122 0.82551 -0.47552 
1.78101 0.98631 -0.21441 
1.78119 0.98693 -0.73576 
1.88179 -0.84635 -0.47681 
1.61990 -1.26858 -0.63729 
1.62031 -1.26848 -0.31514 
1.78224 -1.00758 -0.21603 
1.78152 -1.00765 -0.73715 
0.26740 -1.78385 -1.46992 
0.00638 -1.88329 -1.30844 
0.16780 -1.62259 -1.73083 
-0.15481 -1.62251 -1.73071 
-0.25456 -1.78365 -1.46964 
0.27251 -1.77961 0.52202 
0.01078 -1.87902 0.36137 
0.17560 -1.61815 0.78352 
-0.14625 -1.61772 0.78422 
-0.24831 -1.77876 0.52313 
1.02232 0.25039 1.30635 
1.27582 0.15043 1.13797 
1.27854 -0.16947 1.13645 
1.02885 -0.27066 1.30240 
0.85838 -0.00985 1.42153 
-0.97480 0.23783 1.32906 
-0.97488 -0.28009 1.32206 
-0.81039 -0.02433 1.44085 
-1.23077 0.14145 1.15617 
-1.23146 -0.17709 1.15329 
1.00370 0.25106 -2.24620 
1.26480 0.15135 -2.08525 
1.26478 -0.17140 -2.08539 
1.00367 -0.27107 -2.24640 
0.84237 -0.00999 -2.34581 
-0.98948 0.25054 -2.24659 
-0.98944 -0.27148 -2.24667 
-0.82804 -0.01038 -2.34624 
-1.25059 0.15068 -2.08538 
-1.25056 -0.17193 -2.08543 
-1.59873 1.24001 -0.30718 
-1.60135 1.24211 -0.63065 
-1.75846 0.97944 -0.20747 
-1.76300 0.98226 -0.73079 
-1.86041 0.82014 -0.46925 
-1.60271 -1.26661 -0.63244 
-1.60083 -1.26577 -0.30940 
-1.76068 -1.00502 -0.20932 
-1.76406 -1.00619 -0.73207 
-1.86186 -0.84461 -0.47054 
0.00658 2.01334 -0.17949 
0.00619 2.01827 -0.76085 
0.29057 2.01053 -0.32202 
-0.27747 2.00858 -0.32105 
0.29062 2.01281 -0.61920 
-0.27797 2.01127 -0.61844 
0.78628 1.71530 0.30142 
1.25633 1.54124 0.00958 
0.81050 1.81188 -0.00149 
0.98616 1.52583 0.45860 
1.05083 1.72261 -0.15062 
1.22665 1.43705 0.30901 
0.49164 1.22850 1.08932 
0.78674 0.76913 1.27180 
0.78867 1.20145 0.98360 
0.33533 1.02563 1.28062 
0.93935 0.96613 1.07415 
0.48185 0.78423 1.38533 
-0.46725 1.22046 1.09674 
-0.74981 0.75405 1.29160 
-0.30902 1.01808 1.28884 
-0.76179 1.19041 0.99384 
-0.44870 0.77082 1.40227 
-0.90661 0.95293 1.08903 
-0.76843 1.70791 0.30581 
-1.23657 1.53274 0.01552 
-0.79437 1.80552 0.00214 
-0.96486 1.51627 0.46515 
-1.03391 1.71561 -0.14625 
-1.20418 1.42711 0.31630 
0.78774 1.72354 -1.24546 
1.25754 1.54445 -0.95598 
0.81151 1.81704 -0.94231 
1.05167 1.72547 -0.79431 
0.98815 1.53357 -1.40369 
1.22843 1.44199 -1.25565 
0.48984 1.24113 -2.02705 
0.78033 0.77155 -2.20645 
0.78956 1.21186 -1.92433 
0.32883 1.03569 -2.20894 
0.93813 0.97174 -2.01613 
0.47737 0.79557 -2.30063 
-0.47625 1.24063 -2.02711 
-0.76632 0.77102 -2.20677 
-0.31494 1.03544 -2.20909 
-0.77599 1.21098 -1.92427 
-0.46326 0.79527 -2.30090 
-0.92434 0.97090 -2.01619 
-0.77461 1.72139 -1.24435 
-1.24280 1.54051 -0.95321 
-0.79815 1.81403 -0.94062 
-1.03729 1.72126 -0.79167 
-0.97471 1.53146 -1.40257 
-1.21437 1.43917 -1.25378 
2.04133 0.28037 -0.47668 
2.04151 -0.30092 -0.47714 
2.03645 0.13834 -0.19280 
2.03586 0.13839 -0.76098 
2.03665 -0.15888 -0.19305 
2.03589 -0.15885 -0.76119 
1.74186 0.76259 0.30444 
1.56509 0.47247 0.77297 
1.55055 0.91928 0.50520 
1.46009 0.77092 0.74511 
1.83740 0.46018 0.32731 
1.74691 0.31185 0.56653 
1.74173 0.76370 -1.25574 
1.56215 0.47319 -1.72466 
1.55092 0.92153 -1.45521 
1.45916 0.77299 -1.69507 
1.83624 0.46056 -1.28017 
1.74433 0.31200 -1.51989 
1.25787 -1.56544 -0.95787 
0.78787 -1.74447 -1.24724 
1.05232 -1.74704 -0.79654 
1.22847 -1.46258 -1.25720 
0.81197 -1.83857 -0.94449 
0.98814 -1.55414 -1.40521 
1.25913 -1.56454 0.00696 
0.79067 -1.74182 0.29800 
1.05317 -1.74614 -0.15344 
1.23079 -1.46120 0.30633 
0.81343 -1.83689 -0.00470 
0.99138 -1.55166 0.45560 
1.74426 -0.78395 0.30294 
1.56818 -0.49325 0.77166 
1.83894 -0.48089 0.32640 
1.74842 -0.33220 0.56586 
1.55437 -0.94152 0.50326 
1.46465 -0.79310 0.74315 
1.74167 -0.78404 -1.25662 
1.56207 -0.49334 -1.72512 
1.83619 -0.48087 -1.28070 
1.74428 -0.33221 -1.52023 
1.55082 -0.94181 -1.45618 
1.45904 -0.79317 -1.69582 
0.00668 -2.04158 -0.76348 
0.00796 -2.03989 -0.18311 
0.29148 -2.03627 -0.62203 
0.29202 -2.03549 -0.32531 
-0.27763 -2.03570 -0.62132 
-0.27686 -2.03478 -0.32448 
0.48971 -1.26137 -2.02791 
0.78022 -0.79162 -2.20702 
0.78941 -1.23207 -1.92528 
0.93799 -0.99186 -2.01690 
0.32873 -1.05587 -2.20959 
0.47727 -0.81566 -2.30115 
-0.47622 -1.26134 -2.02776 
-0.76625 -0.79181 -2.20707 
-0.31494 -1.05592 -2.20959 
-0.77591 -1.23202 -1.92490 
-0.46324 -0.81578 -2.30124 
-0.92424 -0.99196 -2.01662 
-0.77467 -1.74377 -1.24599 
-1.24337 -1.56407 -0.95503 
-0.79837 -1.83749 -0.94278 
-0.97476 -1.55355 -1.40383 
-1.03787 -1.74548 -0.79397 
-1.21459 -1.46176 -1.25511 
0.50154 -1.25894 1.08361 
0.79488 -0.79454 1.26690 
0.79679 -1.22847 0.98027 
0.94709 -0.99157 1.07073 
0.34733 -1.05678 1.27193 
0.48971 -0.80765 1.37989 
-0.46410 -1.26111 1.08411 
-0.75054 -0.79764 1.27464 
-0.30246 -1.06268 1.27053 
-0.76274 -1.22944 0.98246 
-0.44630 -0.82184 1.37685 
-0.90899 -0.99193 1.07684 
-0.76890 -1.73953 0.30087 
-1.23883 -1.56129 0.01183 
-0.79500 -1.83462 -0.00191 
-1.03527 -1.74348 -0.14983 
-0.96668 -1.54898 0.45945 
-1.20699 -1.45776 0.31164 
0.10227 -0.51256 1.73770 
-0.21507 -0.47093 2.08924 
0.48665 0.06418 1.80907 
0.36399 -0.44468 2.43799 
-0.35468 -0.31334 1.83168 
-0.53691 -0.01853 2.03895 
-1.52773 0.46357 0.78676 
-1.71243 0.75427 0.31438 
-1.42575 0.76004 0.75817 
-1.52021 0.90903 0.51598 
-1.71169 0.30550 0.57870 
-1.80612 0.45375 0.33788 
[...]
CELL_DATA 2239
SCALARS Strain double 
LOOKUP_TABLE default 
-0.08276
-0.09075
-0.08700
-0.08430
-0.09267
-0.08751
-0.08761
-0.08746
-0.08761
-0.08747
-0.08726
-0.08833
-0.08726
-0.08894
-0.08807
-0.08691
-0.08786
-0.08771
-0.08901
-0.08859
-0.08772
-0.08776
-0.08742
-0.08785
-0.08751
-0.09053
-0.08710
-0.08540
-0.09075
-0.08795
-0.09664
-0.07958
-0.07172
-0.10063
-0.07370
-0.09989
-0.09751
-0.06718
-0.07354
-0.07673
-0.08734
-0.08761
-0.08780
-0.08725
-0.08771
-0.08739
-0.08758
-0.08737
-0.08751
-0.08723
-0.08840
-0.08858
-0.08536
-0.08604
-0.09031
-0.08850
-0.08818
-0.08656
-0.08656
-0.08960
-0.03205
-0.03284
0.06763
0.06828
0.06870
0.06787
-0.03523
-0.03430
0.06686
0.07231
0.07083
0.06597
-0.03319
-0.05023
0.08455
0.05639
0.07894
0.09640
-0.02521
-0.04712
0.04200
0.09702
0.11228
0.06847
-0.03886
-0.03742
0.06702
0.07852
0.07554
0.06513
-0.03448
-0.03462
0.06976
0.06929
0.06922
0.06994
-0.03384
-0.03382
0.06936
0.06965
0.06953
0.06946
-0.03404
-0.03399
0.06989
0.06959
0.06957
0.06992
-0.03428
-0.03448
0.06867
0.07083
0.07019
0.06880
-0.03268
-0.03260
0.06816
0.06766
0.06741
0.06818
-0.03681
-0.03723
0.06751
0.07124
0.07042
0.06855
-0.03465
-0.03454
0.07035
0.06900
0.06873
0.07046
-0.03441
-0.03438
0.06866
0.06988
0.06967
0.06873
-0.03536
-0.03657
0.06920
0.06862
0.06942
0.07009
-0.03656
-0.03661
0.06782
0.07027
0.06988
0.06797
-0.03507
-0.03492
0.06896
0.07048
0.07037
0.06915
-0.03422
-0.03412
0.06860
0.06913
0.06905
0.06812
-0.03374
-0.03372
0.06900
0.06944
0.06951
0.06914
-0.03434
-0.03429
0.06969
0.06980
0.06981
0.06970
-0.03437
-0.03454
0.06890
0.06989
0.07004
0.06888
-0.02281
-0.04921
0.08353
0.07573
0.04294
0.10165
-0.03430
-0.04477
0.06097
0.07742
0.08402
0.07305
-0.03517
-0.03518
0.06685
0.07094
0.07145
0.06604
0.02188
0.13529
0.17201
0.28555
0.03256
-0.02678
-0.02784
0.07277
0.05958
0.05957
0.07289
-0.02997
-0.03077
0.07116
0.06280
0.06184
0.07120
-0.03404
-0.03398
0.06972
0.06954
0.06949
0.06976
-0.03377
-0.03352
0.06981
0.06897
0.06906
0.06979
-0.03346
-0.03333
0.06945
0.06895
0.06904
0.06940
-0.03738
-0.03722
0.07109
0.07095
0.07060
0.07040
-0.06150
-0.04190
0.07648
0.07794
0.03226
0.03069
-0.06818
-0.04671
0.07648
0.08554
0.03762
0.03067
-0.06624
-0.04769
0.08800
0.07281
0.03127
0.04408
-0.06133
-0.04021
0.06978
0.08903
0.04167
0.02437
-0.07127
-0.05041
0.07822
0.08795
0.04018
0.03297
-0.06532
-0.04426
0.07973
0.07932
0.03348
0.03378
-0.06575
-0.04519
0.07996
0.07970
0.03416
0.03441
-0.06543
-0.04472
0.07967
0.08004
0.03426
0.03408
-0.06562
-0.04491
0.08012
0.07988
0.03423
0.03448
-0.06555
-0.04497
0.07949
0.07999
0.03464
0.03394
-0.06526
-0.04473
0.07923
0.07820
0.03251
0.03372
-0.06636
-0.04559
0.07917
0.08039
0.03452
0.03360
-0.06486
-0.04378
0.07942
0.07805
0.03187
0.03330
-0.06744
-0.04720
0.07873
0.08010
0.03486
0.03388
-0.06620
-0.04554
0.08059
0.07858
0.03342
0.03515
-0.06452
-0.04356
0.07849
0.07840
0.03230
0.03266
-0.06592
-0.04526
0.07851
0.08030
0.03429
0.03305
-0.06592
-0.04558
0.07844
0.07961
0.03371
0.03282
-0.06750
-0.04716
0.07881
0.08010
0.03488
0.03333
-0.06671
-0.04601
0.07888
0.08061
0.03521
0.03364
-0.06581
-0.04518
0.07997
0.07930
0.03363
0.03441
-0.06581
-0.04512
0.07973
0.07942
0.03377
0.03378
-0.06536
-0.04462
0.07932
0.07985
0.03408
0.03374
-0.06590
-0.04522
0.07992
0.07993
0.03435
0.03429
-0.06562
-0.04507
0.07942
0.07987
0.03422
0.03376
-0.06875
-0.04794
0.08034
0.07938
0.03392
0.03521
-0.06529
-0.04481
0.07985
0.07680
0.03187
0.03376
-0.06209
-0.03959
0.07848
0.07607
0.02843
0.03011
-0.07075
-0.05214
0.07923
0.08279
0.03884
0.03565
-0.06587
-0.04541
0.07604
0.08147
0.03495
0.02986
-0.05539
-0.04422
0.08466
0.06411
0.02904
0.04280
-0.06759
-0.04811
0.08085
0.07825
0.03362
0.03600
-0.06529
-0.04691
0.08098
0.07407
0.03076
0.03737
-0.04779
-0.03834
0.07824
0.06006
0.02702
0.03607
-0.02965
-0.25574
0.13122
0.15569
0.02534
0.02557
-0.06751
-0.05286
0.08607
0.08792
0.04521
0.04777
-0.06552
-0.04978
0.07455
0.08696
0.04534
0.03637
-0.03206
0.13566
0.10495
0.02576
0.02576
-0.05631
-0.03673
0.08620
0.06841
0.02337
0.03985
-0.05945
-0.03998
0.08489
0.06983
0.02663
0.03852
-0.06531
-0.04464
0.07961
0.07986
0.03404
0.03408
-0.06577
-0.04524
0.07945
0.08045
0.03472
0.03364
-0.06604
-0.04557
0.08047
0.07959
0.03385
0.03477
-0.06522
-0.04454
0.07965
0.07961
0.03374
0.03404
-0.06568
-0.04494
0.07999
0.07978
0.03423
0.03439
-0.06543
-0.04479
0.07984
0.08018
0.03447
0.03422
-0.06567
-0.04507
0.08016
0.07996
0.03433
0.03454
-0.06540
-0.04476
0.07981
0.08011
0.03438
0.03412
-0.06551
-0.04476
0.08019
0.07979
0.03414
0.03454
-0.06516
-0.04440
0.07988
0.07973
0.03398
0.03416
-0.06696
-0.04711
0.08390
0.07542
0.03152
0.03996
-0.06649
-0.04557
0.08232
0.07828
0.03270
0.03555
-0.06197
-0.03993
0.07392
0.08133
0.03459
0.02775
-0.06435
-0.04404
0.07821
0.08002
0.03410
0.03263
-0.06885
-0.04829
0.08149
0.08071
0.03593
0.03548
-0.06643
-0.04557
0.08102
0.07868
0.03322
0.03501
-0.06644
-0.04594
0.08147
0.07684
0.03212
0.03614
-0.06387
-0.04241
0.07581
0.08055
0.03416
0.02941
-0.06459
-0.04403
0.07855
0.07963
0.03383
0.03287
-0.06817
-0.04783
0.08093
0.08017
0.03536
0.03529
0.06991
0.06969
0.01912
0.02258
0.01850
0.01651
0.07046
0.07014
0.01726
0.02475
0.02018
0.01447
0.07166
0.07202
0.01961
0.02069
0.01789
0.01626
0.07066
0.07094
0.01984
0.02149
0.01910
0.01641
0.07713
0.08075
0.01664
0.01779
0.01823
0.01015
0.07249
0.07202
0.01902
0.02058
0.01699
0.01608
0.06820
0.06879
0.02031
0.02149
0.01849
0.01733
0.07855
0.06945
0.03252
0.02449
0.01391
0.03237
0.07710
0.07521
0.01888
0.01733
0.01157
0.01708
0.12267
-0.15966
0.08314
0.02559
0.07590
0.02520
0.09075
0.08509
0.01093
0.01854
0.00987
0.01293
0.14206
-0.04965
0.06582
0.02564
0.10260
0.02554
0.07373
0.07486
0.03510
0.00920
0.00678
0.03049
0.07594
0.07440
0.01874
0.01868
0.01496
0.01610
0.06515
0.06307
0.02858
0.01992
0.01531
0.02802
0.07173
0.07179
0.02081
0.02044
0.01713
0.01771
0.07260
0.07274
0.01996
0.01998
0.01698
0.01686
0.07227
0.07235
0.02046
0.02056
0.01740
0.01735
0.07188
0.07171
0.02023
0.02100
0.01777
0.01695
0.07207
0.07215
0.02051
0.02058
0.01741
0.01742
0.07218
0.07236
0.02077
0.02029
0.01714
0.01752
0.07207
0.07207
0.02073
0.02065
0.01742
0.01750
0.07242
0.07238
0.02060
0.02041
0.01718
0.01755
0.07135
0.07140
0.02129
0.02048
0.01742
0.01777
0.07100
0.07175
0.01768
0.02099
0.01837
0.01403
0.07052
0.07089
0.01957
0.02166
0.01862
0.01650
0.06984
0.06998
0.01838
0.02159
0.01857
0.01521
0.07092
0.07120
0.01907
0.02172
0.01864
0.01609
0.07257
0.07313
0.01977
0.01665
0.01365
0.01558
0.07305
0.07305
0.01974
0.02003
0.01667
0.01633
0.07116
0.07129
0.02026
0.02005
0.01695
0.01658
0.07258
0.07274
0.01950
0.02011
0.01702
0.01644
0.07190
0.07154
0.01993
0.02010
0.01695
0.01677
0.07131
0.07140
0.02083
0.02033
0.01709
0.01774
0.07093
0.07142
0.01918
0.01966
0.01629
0.01592
0.07192
0.07177
0.02012
0.01876
0.01608
0.01683
0.07433
0.07796
0.02184
0.01370
0.01563
0.01403
0.07162
0.07308
0.02097
0.01698
0.01540
0.01546
0.07177
0.07186
0.02105
0.01989
0.01656
0.01782
0.07149
0.07144
0.01982
0.02062
0.01756
0.01638
0.07014
0.06970
0.01990
0.02102
0.01769
0.01655
0.07209
0.07216
0.02014
0.02072
0.01757
0.01705
0.07179
0.07191
0.02043
0.02074
0.01758
0.01733
0.07231
0.07233
0.02057
0.02008
0.01693
0.01731
0.07232
0.07230
0.02062
0.02038
0.01713
0.01739
0.07216
0.07206
0.02089
0.02021
0.01697
0.01777
0.07280
0.07311
0.01954
0.01894
0.01611
0.01639
0.07137
0.07139
0.02114
0.02024
0.01719
0.01786
0.07419
0.09120
0.01124
0.02849
0.03493
-0.00517
0.14534
0.11683
0.09569
0.02517
0.11577
0.02577
0.07652
0.07485
0.01879
0.01662
0.01130
0.01676
0.09998
-0.08063
0.06259
0.02527
0.05416
0.02526
0.07465
0.07402
0.02432
0.01331
0.01040
0.02116
0.06749
0.06635
0.02304
0.02016
0.01686
0.02056
0.06284
0.06362
0.02493
0.02402
0.02048
0.02087
0.07499
0.07434
0.01413
0.02286
0.02014
0.01124
0.07373
0.07366
0.01520
0.02244
0.02006
0.01161
0.07161
0.07160
0.02091
0.02051
0.01748
0.01785
0.07244
0.07273
0.01901
0.02131
0.01774
0.01590
0.07205
0.07238
0.01917
0.02140
0.01802
0.01596
0.06773
0.06983
-0.00820
-0.01018
0.07768
-0.00120
-0.00811
0.06337
-0.00985
0.00143
0.07733
-0.00192
-0.01354
-0.00013
-0.00491
0.07116
0.07087
-0.00604
-0.00583
0.07097
-0.00569
-0.00556
0.07123
-0.00568
-0.00580
0.07112
-0.00565
-0.00551
-0.00551
-0.00584
0.07012
0.07036
-0.00683
-0.00694
0.07161
-0.00534
-0.00638
0.07107
0.06960
-0.00772
-0.00637
-0.00533
-0.00568
-0.00658
-0.00496
0.07020
0.06991
-0.00752
-0.00701
0.06955
0.07159
-0.00567
-0.00694
0.07129
-0.00604
-0.00738
-0.00501
-0.00627
-0.00479
-0.00625
0.07118
0.07065
-0.00611
-0.00554
0.07072
-0.00604
-0.00583
0.07107
-0.00585
-0.00612
0.07106
-0.00558
-0.00565
-0.00582
-0.00608
0.07169
0.06988
-0.00583
-0.00406
0.06733
-0.00867
-0.00603
0.06857
-0.00980
-0.00945
0.07336
-0.00180
-0.00601
-0.00493
-0.01018
0.06345
0.09043
-0.01378
-0.02462
0.06215
-0.00188
-0.00388
0.05055
-0.01240
0.00343
0.10749
-0.01524
-0.04316
-0.02668
-0.03668
0.09237
0.07428
-0.00926
0.00298
0.08390
0.07545
-0.00672
-0.00354
-0.02406
-0.01780
0.05761
-0.01357
-0.00001
-0.01119
0.00049
0.07077
0.07120
-0.00581
-0.00589
0.07153
-0.00534
-0.00614
0.07088
-0.00592
-0.00527
0.07100
-0.00607
-0.00590
-0.00561
-0.00547
0.07105
0.07139
-0.00548
-0.00568
0.07138
0.07117
-0.00556
-0.00535
-0.00552
-0.00578
0.07108
-0.00565
-0.00535
-0.00582
-0.00570
0.07399
0.06735
-0.00777
-0.00171
0.06903
-0.00721
-0.00406
0.07220
-0.00608
-0.01027
0.07157
-0.00612
-0.00799
-0.00369
-0.00428
0.07252
0.06957
-0.00672
-0.00469
0.06844
-0.00734
-0.00407
0.07173
-0.00609
-0.00910
0.07104
-0.00629
-0.00750
-0.00465
-0.00465
0.05498
0.05382
0.07458
0.07556
0.05511
0.05555
0.07685
0.07627
-0.01335
-0.01393
0.04884
-0.01263
-0.01299
0.04746
-0.01533
0.04822
-0.01483
0.04856
0.05861
0.05283
0.07416
0.08128
0.05403
0.05717
0.07743
0.07463
-0.01530
-0.01728
0.05085
-0.01457
-0.01759
0.04451
-0.01609
0.04780
-0.01554
0.05144
0.05060
0.06132
0.08447
0.07511
0.05599
0.08132
0.08537
0.06421
-0.02479
-0.01894
0.05295
-0.00008
-0.01764
0.04169
-0.02072
0.05242
-0.04672
0.02118
0.06499
0.04065
0.06628
0.08975
0.06655
0.07671
0.09324
0.08328
0.01526
-0.00529
0.04130
-0.02391
-0.01491
0.04564
-0.03887
0.00250
-0.02683
0.06776
0.06249
0.05356
0.07518
0.08607
0.05346
0.06384
0.08240
0.07255
-0.01800
-0.02002
0.05384
-0.01858
-0.02248
0.04372
-0.01851
0.04780
-0.01833
0.06029
0.05621
0.05665
0.07744
0.07706
0.05662
0.05589
0.07684
0.07775
-0.01532
-0.01657
0.04976
-0.01689
0.04967
-0.01490
-0.01616
0.05010
-0.01644
0.04925
0.05640
0.05624
0.07708
0.07745
0.05617
0.05634
0.07715
0.07723
-0.01424
-0.01569
0.04958
-0.01441
-0.01583
0.04965
-0.01560
0.04940
-0.01580
0.04979
0.05637
0.05669
0.07761
0.07731
0.05666
0.05638
0.07728
0.07764
-0.01450
-0.01595
0.04971
-0.01459
-0.01603
0.05001
-0.01585
0.04994
-0.01595
0.04979
0.05715
0.05589
0.07671
0.07763
0.05513
0.05734
0.07913
0.07616
-0.01523
-0.01641
0.05124
-0.01694
0.04816
-0.01460
-0.01587
0.04927
-0.01617
0.05020
0.05401
0.05520
0.07636
0.07536
0.05461
0.05461
0.07549
0.07579
-0.01321
-0.01486
0.04701
-0.01314
-0.01465
0.04861
-0.01462
0.04796
-0.01457
0.04816
0.05749
0.05567
0.07564
0.07781
0.05445
0.05761
0.07925
0.07603
-0.01651
-0.01750
0.05156
-0.01877
0.04594
-0.01839
-0.01910
0.05008
-0.02060
0.04926
0.05569
0.05734
0.07811
0.07626
0.05703
0.05567
0.07681
0.07805
-0.01504
-0.01652
0.04925
-0.01632
0.05029
-0.01519
-0.01670
0.05080
-0.01644
0.04874
0.05646
0.05536
0.07618
0.07767
0.05563
0.05662
0.07740
0.07660
-0.01493
-0.01635
0.04945
-0.01486
-0.01630
0.04880
-0.01631
0.04893
-0.01621
0.05009
0.05577
0.05570
0.07629
0.07660
0.05608
0.05660
0.07752
0.07738
-0.01605
-0.01669
0.04937
-0.01632
-0.01697
0.04950
-0.01801
0.04913
-0.01998
0.04797
0.05701
0.05520
0.07597
0.07749
0.05397
0.05742
0.07817
0.07463
-0.01710
-0.01840
0.05074
-0.01831
0.04689
-0.01720
-0.01810
0.04891
-0.01959
0.04910
0.05736
0.05586
0.07652
0.07813
0.05589
0.05706
0.07807
0.07696
-0.01558
-0.01714
0.05081
-0.01678
0.04903
-0.01544
-0.01696
0.04934
-0.01669
0.05031
0.05590
0.05551
0.07682
0.07680
0.05476
0.05585
0.07698
0.07509
-0.01489
-0.01634
0.04928
-0.01619
0.04861
-0.01447
-0.01597
0.04847
-0.01573
0.04907
0.05625
0.05590
0.07672
0.07727
0.05584
0.05625
0.07712
0.07694
-0.01417
-0.01562
0.04950
-0.01553
0.04903
-0.01428
-0.01570
0.04935
-0.01567
0.04966
0.05655
0.05648
0.07740
0.07745
0.05649
0.05665
0.07758
0.07742
-0.01480
-0.01626
0.04991
-0.01487
-0.01630
0.04977
-0.01613
0.04979
-0.01621
0.05001
0.05657
0.05582
0.07676
0.07743
0.05553
0.05692
0.07809
0.07640
-0.01526
-0.01645
0.05005
-0.01476
-0.01603
0.04915
-0.01689
0.04888
-0.01631
0.05012
0.04348
0.05046
0.07654
0.07165
0.05237
0.08126
0.08016
0.05788
-0.02133
-0.01185
0.04962
-0.01630
0.04955
0.01788
-0.00552
0.02567
-0.05461
-0.00602
0.05121
0.05264
0.08321
0.07728
0.06862
0.06023
0.07561
0.08335
-0.00401
-0.02669
0.02853
-0.02237
-0.01926
0.05018
-0.03373
0.03133
-0.02310
0.05393
0.05724
0.05287
0.07396
0.07842
0.05392
0.05836
0.07887
0.07400
-0.01561
-0.01669
0.05040
-0.01703
0.04778
-0.01555
-0.01714
0.04498
-0.01687
0.05233
0.06314
-0.14260
-0.03132
0.13550
0.12573
-0.10028
-0.12270
0.12734
-0.00225
-0.10323
-0.04082
0.20652
0.04522
0.06093
0.08233
0.06619
0.05794
0.04801
0.06920
0.07952
-0.00520
-0.00537
0.03895
-0.00838
0.05040
-0.01014
-0.01112
0.05341
-0.01214
0.04173
0.04870
0.05907
0.08045
0.06830
0.05692
0.05009
0.07184
0.07829
-0.01088
-0.01184
0.04286
-0.01299
0.05014
-0.01120
-0.01190
0.05206
-0.01336
0.04282
0.05635
0.05654
0.07743
0.07722
0.05653
0.05628
0.07726
0.07752
-0.01448
-0.01594
0.04971
-0.01581
0.04980
-0.01453
-0.01599
0.04991
-0.01587
0.04955
0.05609
0.05666
0.07761
0.07707
0.05647
0.05541
0.07622
0.07744
-0.01419
-0.01576
0.04935
-0.01531
0.04987
-0.01422
-0.01581
0.05007
-0.01531
0.04881
0.05598
0.05626
0.07725
0.07701
0.05613
0.05548
0.07635
0.07707
-0.01397
-0.01546
0.04923
-0.01525
0.04958
-0.01391
-0.01544
0.04966
-0.01515
0.04885
0.05787
0.05744
0.07898
0.07827
0.05768
0.05743
0.07857
0.07788
-0.01906
-0.02065
0.05159
-0.02017
0.05179
-0.01675
-0.01823
0.05024
-0.01804
0.05048
-0.01405
-0.01912
-0.01293
-0.02158
0.08273
0.08369
-0.01946
-0.02058
0.09156
-0.01549
-0.00848
0.07807
-0.01626
-0.02448
0.09694
-0.01691
-0.01763
-0.01660
-0.01744
0.08554
0.08484
-0.01724
-0.01695
0.08538
-0.01707
-0.01720
0.08589
-0.01726
-0.01700
0.08575
-0.01696
-0.01823
-0.01668
-0.01852
0.08536
0.08317
-0.01780
-0.01778
0.08628
-0.01654
-0.01970
-0.01610
-0.01794
0.08530
0.08415
-0.01606
-0.01934
-0.01595
-0.01845
0.08400
0.08449
-0.01756
-0.01743
-0.01756
-0.01826
0.08448
0.08625
-0.01783
-0.01902
0.08520
-0.01750
-0.01756
-0.01736
-0.01690
0.08550
0.08498
-0.01724
-0.01746
0.08511
-0.01695
-0.01752
0.08568
-0.01752
-0.01714
0.08576
-0.01964
-0.01728
-0.02146
-0.01463
0.08558
0.08583
-0.01674
-0.01765
0.08280
-0.01099
-0.02366
0.08573
-0.02268
-0.01709
0.08676
-0.01765
-0.02162
0.02115
-0.07512
0.09009
0.02199
-0.02290
-0.01878
0.08670
-0.02266
-0.01342
0.08537
0.04123
-0.10838
-0.00217
-0.00182
-0.05514
-0.02678
-0.00649
0.06577
0.09116
-0.00292
-0.03521
-0.02310
-0.01329
0.05077
0.08991
-0.01197
-0.01245
0.07573
-0.01679
-0.01740
-0.01701
-0.01723
0.08532
0.08568
-0.01749
-0.01777
0.08643
-0.01771
-0.01671
0.08538
-0.01688
-0.01726
0.08543
-0.01700
-0.01696
-0.01711
-0.01707
0.08561
0.08597
-0.01727
-0.01703
-0.01734
-0.01674
0.08589
0.08569
-0.01712
-0.01674
0.08541
-0.01901
-0.01857
-0.01839
-0.01147
0.08887
0.07886
-0.01753
-0.01612
0.08450
-0.01416
-0.02192
0.08781
-0.01613
-0.01948
0.08610
-0.01838
-0.01819
-0.01767
-0.01632
0.08681
0.08468
-0.01788
-0.01492
0.08125
-0.01534
-0.02102
0.08689
-0.01620
-0.01911
0.08568
0.04676
0.04804
0.04891
0.04699
0.04654
0.05108
0.05109
0.04336
0.05105
0.09726
-0.01152
-0.02336
0.06272
0.04758
0.03946
0.04805
0.04894
0.04817
0.04862
0.04847
0.04846
0.04868
0.04869
0.04804
0.04709
0.04557
0.04944
0.04718
0.04755
0.04959
0.04772
0.04780
0.04810
0.04895
0.04764
0.04817
0.04674
0.04867
0.04797
0.04770
0.04686
0.04897
0.04847
0.04820
0.04866
0.04879
0.04843
0.04792
0.11047
-0.04971
-0.01682
0.05189
0.04897
0.04256
0.04101
0.05134
0.05058
0.04759
0.04897
0.04861
-0.03123
0.03581
0.09543
0.09440
0.21240
0.11661
-0.14437
0.02769
-0.03921
0.02566
0.17533
-0.03817
-0.11228
0.00253
-0.04384
-0.10672
0.07334
-0.07710
0.09310
-0.17439
0.00787
0.15400
0.19883
0.00631
-0.06663
0.15044
0.20761
0.06695
-0.12011
0.01358
0.12612
-0.05772
0.05503
-0.14307
0.10446
0.00003
-0.01480
0.13819
0.03135
-0.10166
-0.09717
-0.23217
-0.10016
0.00552
-0.03457
0.08167
0.04348
0.01378
0.08422
0.00127
-0.03307
-0.09666
-0.16147
0.01418
-0.01875
-0.01944
-0.07089
-0.11350
-0.08805
0.04815
0.06404
-0.06404
0.03377
0.02291
-0.16705
0.08991
0.06309
0.04145
0.02788
0.02653
0.13173
0.04444
0.00848
0.01797
0.01305
0.02476
0.25537
0.03653
0.04659
-0.00323
-0.00319
0.05186
0.01067
0.00575
-0.05524
-0.02078
-0.07994
-0.07140
-0.09520
-0.04211
0.01810
-0.06103
-0.03731
-0.03761
0.13741
0.07859
0.08376
-0.00532
0.03892
0.03192
-0.02209
0.02201
-0.15076
-0.02537
0.05891
0.05434
-0.00735
0.02817
0.08069
0.04373
-0.09710
-0.10174
0.04184
-0.00950
0.01745
0.11430
0.00864
-0.00048
0.21188
-0.03604
0.03547
0.02198
-0.02026
0.06276
0.03027
-0.09192
0.17153
-0.02748
0.06905
0.18785
0.21225
-0.02908
-0.16179
0.06670
0.10659
-0.13290
-0.00428
0.23640
-0.02440
-0.04771
-0.00103
0.02263
0.04260
0.09929
-0.11729
0.06860
0.11182
-0.07244
0.11056
0.07749
-0.00470
0.15011
-0.06021
-0.02394
-0.05019
-0.10496
0.13830
-0.01059
-0.13147
0.20312
-0.10569
-0.04733
-0.12624
0.06720
0.29662
0.05425
0.01345
0.21976
0.04279
-0.04574
0.25851
0.04169
0.28469
-0.13277
0.29243
-0.00386
0.05892
0.21330
0.24417
0.03151
-0.08424
-0.04133
0.04590
0.09291
-0.06708
0.09506
0.10052
0.14112
-0.11928
0.00804
0.04263
-0.06758
0.24206
-0.03171
-0.01808
-0.09830
0.09248
-0.02881
0.12577
-0.19330
0.19776
0.01750
0.13945
0.06302
0.16725
-0.15929
0.00960
0.01210
-0.04678
-0.06089
-0.14528
0.04041
-0.15329
-0.11793
-0.00082
-0.11576
-0.06727
0.27913
0.11897
-0.03121
0.09477
0.15028
0.07552
0.32645
0.11441
0.15003
0.22356
-0.03855
0.16114
-0.06176
0.19990
0.11647
-0.15518
-0.29594
0.23887
-0.08835
0.02850
-0.00271
0.08453
0.10362
-0.19802
-0.05805
0.19153
0.03754
-0.02564
0.00779
0.09353
0.07708
-0.14391
0.02114
0.28864
0.09584
0.29106
0.28777
-0.16973
0.09554
0.12922
0.04371
-0.13284
0.09817
0.16241
0.09553
-0.00453
0.16880
-0.21063
0.08448
0.19889
-0.02392
0.06284
-0.04833
-0.08057
0.03437
0.00072
-0.12014
-0.24262
0.10481
-0.14806
0.04996
-0.13929
-0.21745
0.00655
-0.13256
-0.01447
-0.05913
-0.00820
-0.10699
-0.08891
0.13668
-0.01394
0.05385
-0.11390
-0.20452
0.03410
0.02758
-0.05836
-0.06451
-0.13087
-0.02101
-0.10932
0.04696
-0.15746
-0.04910
-0.10296
-0.05892
-0.13433
-0.00496
-0.08186
0.11639
-0.20102
-0.04281
-0.12656
-0.12983
-0.11516
-0.13631
-0.23012
-0.10712
-0.25734
-0.08744
-0.21288
0.10541
-0.19328
0.09232
-0.23485
-0.02122
-0.23660
-0.03288
0.10000
