# vtk DataFile Version 3.0
Point representing Sub_cellular elem model
ASCII

DATASET UNSTRUCTURED_GRID
POINTS 717 float
0.00190 1.72460 0.75094 
0.00717 1.73327 -1.39795 
1.74590 1.06717 -0.31649 
1.74594 -1.08583 -0.31979 
0.00538 -1.75122 -1.40076 
0.00429 -1.74851 0.74724 
1.08030 -0.00889 1.43458 
-1.05175 -0.02056 1.43912 
1.08532 -0.00871 -2.05934 
-1.06822 -0.00818 -2.06637 
-1.73626 1.06592 -0.32625 
-1.73768 -1.08359 -0.32747 
0.00412 2.04299 -0.32240 
1.02849 1.64929 0.31468 
0.63632 1.01387 1.34355 
-0.62456 0.99886 1.34124 
-1.02123 1.64556 0.30853 
1.03269 1.65214 -0.95265 
0.64327 1.01769 -1.97944 
-0.62580 1.01803 -1.98385 
-1.02112 1.65217 -0.95939 
2.05716 -0.00908 -0.31723 
1.66168 0.62372 0.70834 
1.66814 0.62575 -1.34290 
1.03180 -1.67066 -0.95641 
1.02920 -1.66950 0.31018 
1.66256 -0.64348 0.70599 
1.66801 -0.64341 -1.34447 
0.00266 -2.06221 -0.32659 
0.64247 -1.03528 -1.98116 
-0.62708 -1.03490 -1.98500 
-1.02324 -1.66953 -0.96164 
0.64205 -1.03289 1.34612 
-0.62323 -1.03867 1.33844 
-1.02238 -1.66678 0.30572 
-0.01826 0.51924 2.12534 
-1.64735 0.61789 0.70053 
-1.64819 -0.64177 0.70062 
0.00960 -0.00856 -2.37328 
-1.65495 0.62633 -1.35325 
-1.65588 -0.64239 -1.35386 
-2.04707 -0.00869 -0.32709 
0.00277 1.95866 0.24795 
0.52500 1.75781 0.57230 
0.32438 1.43125 1.09379 
-0.32041 1.42688 1.09134 
-0.51990 1.75469 0.56880 
0.00568 1.96316 -0.89336 
0.53041 1.76324 -1.21487 
0.33185 1.43955 -1.73860 
-0.31555 1.43974 -1.74087 
-0.51723 1.76339 -1.21848 
1.45125 1.40854 0.00604 
1.45353 1.40964 -0.64064 
1.97596 0.56235 -0.31651 
1.77402 0.88502 0.20651 
1.77771 0.88630 -0.83986 
1.97605 -0.58068 -0.31837 
1.45319 -1.42822 -0.64441 
1.45142 -1.42792 0.00182 
1.77447 -0.90422 0.20343 
1.77760 -0.90433 -0.84237 
0.52897 -1.78158 -1.21827 
0.00382 -1.98161 -0.89689 
0.33050 -1.45733 -1.74098 
-0.31722 -1.45709 -1.74286 
-0.51929 -1.78106 -1.22110 
0.52680 -1.77958 0.56780 
0.00263 -1.97954 0.24345 
0.33072 -1.45654 1.09130 
-0.31590 -1.45600 1.08927 
-0.51942 -1.77787 0.56540 
0.90368 0.51628 1.46025 
1.42079 0.31265 1.13073 
1.42185 -0.33268 1.12965 
0.90700 -0.53337 1.46122 
0.57676 0.00050 1.70062 
-0.88194 0.49790 1.45980 
-0.87944 -0.53989 1.46332 
-0.53542 -0.03842 1.72405 
-1.40021 0.30421 1.12600 
-1.40017 -0.33489 1.12737 
0.90408 0.51483 -2.08952 
1.42687 0.31489 -1.76506 
1.42677 -0.33238 -1.76575 
0.90376 -0.53227 -2.09043 
0.58084 -0.00866 -2.29046 
-0.88634 0.51527 -2.09559 
-0.88702 -0.53181 -2.09608 
-0.56221 -0.00838 -2.29428 
-1.41142 0.31555 -1.77421 
-1.41188 -0.33163 -1.77449 
-1.44252 1.40598 -0.00222 
-1.44338 1.40916 -0.64946 
-1.76367 0.88184 0.19742 
-1.76673 0.88633 -0.85030 
-1.96589 0.56162 -0.32672 
-1.44525 -1.42646 -0.65123 
-1.44412 -1.42509 -0.00411 
-1.76477 -0.90161 0.19658 
-1.76801 -0.90287 -0.85125 
-1.96667 -0.57907 -0.32731 
0.55972 1.94064 -0.01534 
-0.55271 1.93936 -0.01892 
0.56163 1.94243 -0.62575 
-0.55174 1.94217 -0.62945 
0.90102 1.38130 0.88480 
1.05520 1.75301 -0.31864 
1.39593 1.19458 0.58188 
0.00055 1.03440 1.44322 
1.20728 0.88884 1.07602 
0.31178 0.54984 1.66923 
-0.89266 1.37329 0.87923 
-0.29526 0.51672 1.67920 
-1.19191 0.87816 1.06939 
-1.04648 1.75186 -0.32516 
-1.38566 1.18849 0.57407 
0.90823 1.38624 -1.52428 
1.40190 1.19740 -1.21742 
0.00912 1.04227 -2.08317 
1.21425 0.89177 -1.71207 
0.31512 0.54778 -2.27071 
-0.89347 1.38663 -1.53044 
-0.29608 0.54794 -2.27283 
-1.19871 0.89232 -1.72014 
-1.38913 1.19776 -1.22642 
1.95367 0.29605 0.23888 
1.95743 0.29680 -0.87299 
1.95388 -0.31485 0.23776 
1.95742 -0.31458 -0.87387 
1.76397 -0.00970 0.73175 
1.76988 -0.00876 -1.36779 
1.05468 -1.77223 -0.32314 
1.40146 -1.21544 -1.22028 
0.56035 -1.96136 -0.62997 
0.90734 -1.40425 -1.52706 
1.39708 -1.21473 0.57816 
0.55930 -1.96051 -0.02010 
0.90390 -1.40242 0.88209 
1.20934 -0.90929 1.07412 
1.21383 -0.90945 -1.71393 
-0.55379 -1.96051 -0.63270 
-0.55405 -1.95915 -0.02263 
0.00802 -1.05958 -2.08459 
0.31462 -0.56508 -2.27148 
-0.89529 -1.40356 -1.53213 
-0.29671 -0.56492 -2.27344 
-1.19995 -0.90871 -1.72104 
-1.04841 -1.77033 -0.32789 
-1.39083 -1.21432 -1.22776 
0.01629 -1.06822 1.44244 
0.32312 -0.55100 1.68295 
-0.89278 -1.40062 0.87706 
-0.28190 -0.59202 1.66485 
-1.19285 -0.90758 1.07035 
-1.38686 -1.21132 0.57301 
-1.74792 -0.01218 0.72521 
-1.94199 0.29427 0.23017 
-1.94241 -0.31421 0.22990 
-1.75694 -0.00794 -1.37827 
-1.94638 0.29728 -0.88390 
-1.94683 -0.31352 -0.88420 
0.00227 1.85811 0.51067 
0.26251 1.75803 0.67227 
0.16256 1.59459 0.93194 
-0.15904 1.59299 0.93068 
-0.25829 1.75622 0.67040 
0.00645 1.86483 -1.15683 
0.26804 1.76509 -1.31711 
0.16907 1.60372 -1.57821 
-0.15367 1.60381 -1.57934 
-0.25420 1.76519 -1.31892 
1.61588 1.24784 -0.15558 
1.61704 1.24832 -0.47799 
1.87745 0.82595 -0.31640 
1.77680 0.98681 -0.05567 
1.77867 0.98750 -0.57735 
1.87754 -0.84444 -0.31906 
1.61693 -1.26692 -0.48159 
1.61597 -1.26685 -0.15938 
1.77702 -1.00575 -0.05891 
1.77862 -1.00581 -0.58029 
0.26639 -1.78326 -1.32022 
0.00459 -1.88302 -1.16000 
0.16747 -1.62159 -1.58084 
-0.15543 -1.62145 -1.58176 
-0.25614 -1.78301 -1.32166 
0.26471 -1.78089 0.66799 
0.00326 -1.88034 0.50638 
0.16671 -1.61957 0.92861 
-0.15553 -1.61897 0.92787 
-0.25678 -1.77992 0.66688 
1.00673 0.25175 1.46365 
1.26176 0.15023 1.29766 
1.26288 -0.16949 1.29710 
1.00968 -0.26872 1.46325 
0.84066 -0.00601 1.57783 
-0.98225 0.23583 1.46556 
-0.97847 -0.27851 1.46927 
-0.80755 -0.02630 1.58965 
-1.23790 0.14015 1.29645 
-1.23685 -0.17596 1.29804 
1.00542 0.25229 -2.09117 
1.26605 0.15260 -1.92946 
1.26600 -0.17005 -1.92977 
1.00529 -0.26970 -2.09163 
0.84428 -0.00868 -2.19136 
-0.98791 0.25278 -2.09781 
-0.98825 -0.26921 -2.09804 
-0.82632 -0.00828 -2.19689 
-1.24968 0.15321 -1.93764 
-1.24991 -0.16941 -1.93778 
-1.60665 1.24599 -0.16466 
-1.60729 1.24748 -0.48739 
-1.76715 0.98472 -0.06519 
-1.76852 0.98698 -0.58749 
-1.86758 0.82487 -0.32651 
-1.60894 -1.26490 -0.48890 
-1.60821 -1.26429 -0.16619 
-1.76841 -1.00322 -0.06627 
-1.76988 -1.00399 -0.58859 
-1.86871 -0.84241 -0.32739 
0.00340 2.02118 -0.03259 
0.00489 2.02340 -0.61236 
0.28849 2.01684 -0.17320 
-0.28096 2.01635 -0.17509 
0.28935 2.01783 -0.46968 
-0.28032 2.01760 -0.47159 
0.78309 1.72138 0.45196 
1.25355 1.54391 0.16446 
0.80816 1.81706 0.14994 
0.98261 1.53076 0.61048 
1.04878 1.72612 0.00278 
1.22312 1.44013 0.46348 
0.48482 1.23702 1.23143 
0.77866 0.77391 1.41939 
0.78341 1.20793 1.13095 
0.32618 1.03526 1.41654 
0.93302 0.97021 1.22449 
0.47405 0.79565 1.52142 
-0.47842 1.22784 1.22856 
-0.76167 0.75656 1.41686 
-0.32058 1.02394 1.41595 
-0.77350 1.19704 1.12636 
-0.46047 0.77368 1.52358 
-0.91865 0.95723 1.21928 
-0.77688 1.71761 0.44707 
-1.24545 1.54067 0.15717 
-0.80131 1.81468 0.14493 
-0.97516 1.52510 0.60453 
-1.04105 1.72389 -0.00355 
-1.21468 1.43504 0.45636 
0.78800 1.72537 -1.09221 
1.25686 1.54578 -0.80055 
0.81120 1.81948 -0.78940 
1.05094 1.72756 -0.64023 
0.98858 1.53486 -1.24924 
1.22834 1.44310 -1.10015 
0.49159 1.24231 -1.87386 
0.78220 0.77266 -2.05206 
0.79100 1.21293 -1.77013 
0.33091 1.03690 -2.05608 
0.93962 0.97277 -1.86129 
0.47952 0.79674 -2.14717 
-0.47460 1.24258 -1.87724 
-0.76448 0.77306 -2.05739 
-0.31287 1.03708 -2.05834 
-0.77477 1.21334 -1.77555 
-0.46110 0.79700 -2.15045 
-0.92301 0.97325 -1.86767 
-0.77560 1.72551 -1.09748 
-1.24607 1.54561 -0.80848 
-0.80045 1.81933 -0.79472 
-1.04090 1.72714 -0.64691 
-0.97540 1.53514 -1.25584 
-1.21609 1.44331 -1.10811 
2.03668 0.28117 -0.31680 
2.03674 -0.29938 -0.31776 
2.03041 0.13917 -0.03260 
2.03235 0.13949 -0.60154 
2.03047 -0.15762 -0.03312 
2.03237 -0.15743 -0.60200 
1.73534 0.76280 0.46384 
1.55563 0.47210 0.93274 
1.54431 0.91992 0.66335 
1.45254 0.77129 0.90319 
1.82969 0.46026 0.48760 
1.73767 0.31173 0.72707 
1.74065 0.76454 -1.09776 
1.56244 0.47429 -1.56765 
1.55069 0.92241 -1.29811 
1.45954 0.77397 -1.53837 
1.83499 0.46156 -1.12188 
1.74387 0.31315 -1.36218 
1.25625 -1.56434 -0.80436 
0.78682 -1.74383 -1.09583 
1.05016 -1.74640 -0.64441 
1.22768 -1.46137 -1.10350 
0.81010 -1.83822 -0.79346 
0.98767 -1.55311 -1.25253 
1.25391 -1.56368 0.16001 
0.78433 -1.74222 0.44745 
1.04875 -1.74580 -0.00186 
1.22415 -1.46036 0.45933 
0.80834 -1.83716 0.14519 
0.98431 -1.55152 0.60656 
1.73602 -0.78228 0.46104 
1.55663 -0.49211 0.93099 
1.83016 -0.47950 0.48583 
1.73815 -0.33123 0.72583 
1.54541 -0.93992 0.66018 
1.45393 -0.79157 0.90066 
1.74053 -0.78236 -1.09980 
1.56232 -0.49184 -1.56876 
1.83494 -0.47925 -1.12314 
1.74383 -0.33071 -1.36299 
1.55043 -0.94023 -1.30037 
1.45929 -0.79164 -1.54015 
0.00315 -2.04217 -0.61624 
0.00246 -2.04107 -0.03702 
0.28795 -2.03691 -0.47395 
0.28750 -2.03641 -0.17776 
-0.28213 -2.03641 -0.47533 
-0.28239 -2.03578 -0.17909 
0.49051 -1.26000 -1.87594 
0.78166 -0.79017 -2.05340 
0.79014 -1.23073 -1.77238 
0.93900 -0.99044 -1.86313 
0.32995 -1.05438 -2.05766 
0.47884 -0.81417 -2.14841 
-0.47610 -1.25967 -1.87880 
-0.76547 -0.78974 -2.05818 
-0.31408 -1.05418 -2.05962 
-0.77634 -1.23020 -1.77696 
-0.46206 -0.81391 -2.15134 
-0.92430 -0.98987 -1.86870 
-0.77773 -1.74301 -1.09994 
-1.24810 -1.56289 -0.81050 
-0.80260 -1.83718 -0.79747 
-0.97742 -1.55223 -1.25781 
-1.04300 -1.74494 -0.64943 
-1.21805 -1.46024 -1.10989 
0.49226 -1.26026 1.23105 
0.78308 -0.79188 1.42141 
0.78759 -1.22881 1.13032 
0.93631 -0.99032 1.22420 
0.33826 -1.05873 1.41868 
0.48201 -0.80915 1.52865 
-0.47436 -1.26196 1.22634 
-0.76028 -0.79695 1.41798 
-0.31203 -1.06489 1.41292 
-0.77311 -1.22940 1.12436 
-0.45641 -0.82586 1.51756 
-0.91902 -0.99077 1.21961 
-0.77735 -1.73994 0.44387 
-1.24695 -1.56075 0.15486 
-0.80253 -1.83507 0.14160 
-1.04266 -1.74343 -0.00641 
-0.97579 -1.54883 0.60197 
-1.21586 -1.45712 0.45436 
0.12193 -0.49099 1.89836 
-0.08340 -0.48685 2.15491 
0.41531 0.17626 1.93042 
0.38972 -0.35201 2.61759 
-0.36572 -0.32062 1.98845 
-0.51982 -0.22683 2.26528 
-1.53827 0.46497 0.92603 
-1.72343 0.75833 0.45531 
-1.43736 0.76310 0.89578 
-1.53191 0.91354 0.65526 
-1.72203 0.30726 0.71987 
-1.81664 0.45664 0.47941 
[...]
CELL_DATA 2143
SCALARS Strain double 
LOOKUP_TABLE default 
-0.08741
-0.08941
-0.08792
-0.08756
-0.08963
-0.08808
-0.08714
-0.08780
-0.08753
-0.08727
-0.08810
-0.08772
-0.08777
-0.08810
-0.08793
-0.08723
-0.08703
-0.08838
-0.08809
-0.08876
-0.08691
-0.08872
-0.08771
-0.08797
-0.08678
-0.08988
-0.08837
-0.08533
-0.09106
-0.08710
-0.09570
-0.07875
-0.07258
-0.10102
-0.07305
-0.11368
-0.10410
-0.04740
-0.05606
-0.07089
-0.08763
-0.08741
-0.08794
-0.08735
-0.08758
-0.08750
-0.08752
-0.08743
-0.08746
-0.08750
-0.08875
-0.08735
-0.08656
-0.08762
-0.08862
-0.08770
-0.08819
-0.08698
-0.08740
-0.08873
-0.03510
-0.03511
0.06970
0.06902
0.06906
0.06969
-0.03625
-0.03590
0.06984
0.06888
0.06862
0.06950
-0.03025
-0.04009
0.07323
0.06021
0.07125
0.07885
-0.02365
-0.04218
0.04258
0.08921
0.10552
0.06604
-0.03723
-0.03667
0.06929
0.07195
0.07029
0.06860
-0.03368
-0.03377
0.06919
0.06877
0.06897
0.06930
-0.03427
-0.03423
0.06942
0.06973
0.06963
0.06950
-0.03404
-0.03403
0.06984
0.06928
0.06935
0.06985
-0.03358
-0.03357
0.06943
0.06890
0.06896
0.06940
-0.03395
-0.03382
0.06919
0.06823
0.06808
0.06923
-0.03461
-0.03439
0.06828
0.06804
0.06899
0.06792
-0.03425
-0.03416
0.06968
0.06909
0.06886
0.06980
-0.03318
-0.03317
0.06769
0.06969
0.06958
0.06784
-0.03635
-0.03722
0.06850
0.07065
0.07125
0.06954
-0.03397
-0.03344
0.06787
0.06868
0.06914
0.06734
-0.03532
-0.03517
0.06965
0.07004
0.07002
0.06979
-0.03606
-0.03605
0.06938
0.07043
0.07015
0.06920
-0.03398
-0.03391
0.06859
0.07003
0.07011
0.06883
-0.03435
-0.03426
0.07021
0.06915
0.06932
0.07017
-0.03318
-0.03331
0.06935
0.06848
0.06839
0.06929
-0.01861
-0.03980
0.08163
0.06691
0.04051
0.09606
-0.03440
-0.04038
0.06596
0.07413
0.07687
0.07021
-0.03503
-0.03530
0.06859
0.06920
0.06990
0.06803
-0.11576
-0.14800
0.06358
-0.02302
0.17388
-0.02563
-0.02839
0.06710
0.06439
0.06265
0.06839
-0.02870
-0.03044
0.07166
0.06281
0.06120
0.07237
-0.03396
-0.03393
0.06957
0.06936
0.06929
0.06955
-0.03407
-0.03409
0.06977
0.06948
0.06952
0.06975
-0.03415
-0.03415
0.06985
0.06947
0.06952
0.06970
-0.03596
-0.03599
0.06969
0.07085
0.07037
0.06965
-0.06602
-0.04576
0.07910
0.07843
0.03288
0.03336
-0.06746
-0.04686
0.07922
0.07925
0.03317
0.03371
-0.06647
-0.04690
0.08031
0.07718
0.03275
0.03644
-0.06421
-0.04112
0.07470
0.08206
0.03552
0.02744
-0.06822
-0.04794
0.07877
0.08108
0.03432
0.03387
-0.06634
-0.04585
0.07976
0.08024
0.03466
0.03422
-0.06512
-0.04446
0.07967
0.07937
0.03347
0.03395
-0.06582
-0.04513
0.07958
0.08026
0.03452
0.03407
-0.06555
-0.04488
0.08028
0.07936
0.03385
0.03460
-0.06521
-0.04447
0.08010
0.07918
0.03338
0.03427
-0.06657
-0.04635
0.07914
0.07961
0.03428
0.03364
-0.06557
-0.04474
0.07912
0.07955
0.03362
0.03360
-0.06574
-0.04494
0.07950
0.07890
0.03305
0.03384
-0.06621
-0.04553
0.07921
0.07930
0.03306
0.03334
-0.06591
-0.04517
0.07978
0.07915
0.03379
0.03430
-0.06522
-0.04457
0.07834
0.07962
0.03374
0.03274
-0.06486
-0.04407
0.07820
0.07982
0.03378
0.03253
-0.06680
-0.04659
0.07854
0.08062
0.03516
0.03353
-0.06605
-0.04516
0.07827
0.08026
0.03419
0.03235
-0.06693
-0.04626
0.07989
0.08012
0.03466
0.03452
-0.06479
-0.04405
0.08015
0.07836
0.03244
0.03433
-0.06716
-0.04676
0.08030
0.08026
0.03492
0.03475
-0.06564
-0.04489
0.07871
0.08076
0.03495
0.03340
-0.06599
-0.04527
0.08082
0.07910
0.03382
0.03510
-0.06468
-0.04397
0.07992
0.07869
0.03274
0.03400
-0.06842
-0.04813
0.08166
0.07770
0.03240
0.03697
-0.06698
-0.04670
0.08098
0.07770
0.03263
0.03481
-0.06126
-0.03690
0.07643
0.07721
0.02760
0.02692
-0.07082
-0.05189
0.08071
0.08136
0.03774
0.03617
-0.06518
-0.04501
0.07714
0.07979
0.03311
0.03115
-0.05738
-0.03962
0.07774
0.06868
0.02917
0.03379
-0.06367
-0.04462
0.07743
0.07661
0.03386
0.03441
-0.06128
-0.04322
0.07741
0.07524
0.03256
0.03435
-0.05749
-0.03908
0.07474
0.08008
0.03596
0.02587
-0.03340
0.01187
0.11564
0.15642
0.02562
0.02580
-0.06819
-0.04226
0.10509
0.07774
0.02601
0.05236
-0.07181
-0.04735
0.08620
0.08869
0.04177
0.04365
0.00845
0.19357
0.11537
0.02609
0.02543
-0.04746
-0.03265
0.07790
0.06770
0.02691
0.03493
-0.05475
-0.03721
0.08810
0.06527
0.02401
0.04319
-0.06567
-0.04503
0.07965
0.07994
0.03419
0.03414
-0.06549
-0.04491
0.07943
0.08002
0.03424
0.03356
-0.06623
-0.04580
0.08012
0.08000
0.03429
0.03453
-0.06535
-0.04470
0.08002
0.07931
0.03345
0.03437
-0.06554
-0.04483
0.07997
0.07949
0.03393
0.03427
-0.06552
-0.04486
0.07979
0.07999
0.03433
0.03410
-0.06560
-0.04501
0.07978
0.08013
0.03450
0.03404
-0.06542
-0.04475
0.07978
0.07983
0.03418
0.03405
-0.06551
-0.04488
0.07995
0.07992
0.03426
0.03425
-0.06558
-0.04496
0.08005
0.07991
0.03422
0.03431
-0.06730
-0.04708
0.08046
0.07903
0.03409
0.03593
-0.06523
-0.04445
0.07979
0.07913
0.03339
0.03391
-0.06351
-0.04131
0.07780
0.07866
0.03191
0.03092
-0.06563
-0.04494
0.07920
0.08030
0.03456
0.03365
-0.06707
-0.04667
0.07944
0.08072
0.03572
0.03413
-0.06537
-0.04437
0.07958
0.07923
0.03352
0.03368
-0.06652
-0.04609
0.08017
0.07839
0.03375
0.03531
-0.06429
-0.04262
0.07696
0.08039
0.03402
0.03025
-0.06553
-0.04494
0.07928
0.07993
0.03445
0.03368
-0.06719
-0.04674
0.08053
0.08003
0.03472
0.03470
0.07221
0.07226
0.01935
0.01934
0.01616
0.01625
0.07155
0.07168
0.01961
0.01999
0.01649
0.01634
0.07161
0.07163
0.02098
0.01959
0.01625
0.01779
0.07212
0.07202
0.02060
0.01959
0.01638
0.01749
0.07196
0.07313
0.02088
0.01639
0.01460
0.01617
0.07107
0.07113
0.02081
0.01970
0.01632
0.01776
0.07160
0.07116
0.02011
0.01869
0.01490
0.01700
0.08473
0.07058
0.02723
0.01820
0.00425
0.03390
0.07010
0.06984
0.01855
0.02044
0.01683
0.01667
0.09412
0.15282
0.05921
0.02501
0.05603
0.02501
0.08264
0.07745
0.01227
0.02084
0.01409
0.01253
0.13826
0.04408
0.06033
0.02555
0.10353
0.02569
0.06752
0.06875
0.03377
0.01475
0.01317
0.02658
0.07195
0.07154
0.02063
0.01959
0.01631
0.01753
0.07005
0.06853
0.02394
0.01737
0.01339
0.02326
0.07166
0.07181
0.02031
0.02075
0.01746
0.01719
0.07194
0.07207
0.02007
0.02033
0.01732
0.01703
0.07230
0.07233
0.02045
0.02024
0.01710
0.01730
0.07198
0.07180
0.02043
0.02049
0.01726
0.01715
0.07205
0.07208
0.02054
0.02029
0.01712
0.01742
0.07170
0.07158
0.02093
0.02054
0.01735
0.01776
0.07189
0.07189
0.02064
0.02050
0.01731
0.01745
0.07235
0.07232
0.02038
0.02055
0.01736
0.01715
0.07191
0.07194
0.02023
0.02090
0.01775
0.01710
0.07172
0.07170
0.01919
0.01979
0.01686
0.01585
0.07092
0.07113
0.02021
0.02075
0.01769
0.01713
0.07049
0.07044
0.02003
0.02036
0.01706
0.01688
0.07185
0.07200
0.01916
0.02100
0.01778
0.01612
0.07082
0.07111
0.02029
0.01889
0.01574
0.01695
0.07241
0.07249
0.01967
0.02052
0.01724
0.01629
0.07019
0.07043
0.01982
0.02160
0.01847
0.01635
0.07233
0.07245
0.01896
0.02099
0.01791
0.01594
0.07203
0.07198
0.01856
0.02141
0.01838
0.01528
0.07057
0.07084
0.02067
0.02120
0.01797
0.01757
0.07251
0.07196
0.02054
0.01821
0.01430
0.01818
0.07354
0.07322
0.01859
0.01920
0.01616
0.01529
0.07385
0.07726
0.02424
0.01210
0.01310
0.01733
0.06950
0.06881
0.02033
0.02254
0.01897
0.01697
0.07239
0.07247
0.02085
0.01954
0.01614
0.01764
0.07235
0.07205
0.02104
0.01887
0.01561
0.01777
0.07146
0.07124
0.02076
0.01902
0.01566
0.01717
0.07269
0.07273
0.01991
0.02032
0.01725
0.01688
0.07152
0.07167
0.02075
0.02055
0.01733
0.01763
0.07144
0.07120
0.02137
0.02028
0.01715
0.01813
0.07194
0.07201
0.02084
0.02028
0.01700
0.01766
0.07261
0.07250
0.02025
0.02048
0.01723
0.01696
0.07099
0.07125
0.01983
0.02055
0.01764
0.01681
0.07183
0.07190
0.01997
0.02099
0.01800
0.01686
0.07232
0.09448
0.00552
0.02847
0.04094
-0.01498
0.12929
0.03093
0.05493
0.02513
0.11956
0.02530
0.07476
0.07341
0.01877
0.01825
0.01386
0.01569
0.08513
-0.06152
0.06545
0.02507
0.02790
0.02521
0.07160
0.07305
0.02853
0.01298
0.01250
0.02326
0.06933
0.06739
0.02279
0.01968
0.01589
0.02125
0.06418
0.06365
0.02172
0.02723
0.02227
0.01859
0.07169
0.07208
0.01650
0.02291
0.02086
0.01295
0.07453
0.07394
0.01609
0.02135
0.01844
0.01282
0.07204
0.07204
0.02056
0.02057
0.01735
0.01741
0.07235
0.07254
0.01996
0.02049
0.01733
0.01677
0.07212
0.07211
0.01997
0.02081
0.01749
0.01678
0.06994
0.06957
-0.00742
-0.00722
0.07136
-0.00619
-0.00655
0.06776
-0.00801
-0.00435
0.07191
-0.00554
-0.00978
-0.00561
-0.00606
0.07102
0.07140
-0.00525
-0.00554
0.07073
-0.00636
-0.00595
0.07154
-0.00529
-0.00581
0.07051
-0.00607
-0.00531
-0.00644
-0.00562
0.07045
0.07077
-0.00576
-0.00626
0.07079
-0.00633
-0.00624
0.07062
0.07044
-0.00655
-0.00610
-0.00660
-0.00621
-0.00602
-0.00578
0.06968
0.07103
-0.00617
-0.00712
0.06975
0.07103
-0.00636
-0.00722
0.07175
-0.00492
-0.00646
-0.00543
-0.00717
-0.00533
-0.00530
0.07150
0.06990
-0.00725
-0.00567
0.07128
-0.00504
-0.00497
0.07207
-0.00490
-0.00643
0.07014
-0.00608
-0.00476
-0.00710
-0.00597
0.07256
0.06837
-0.00739
-0.00305
0.06794
-0.00798
-0.00507
0.06986
-0.00935
-0.01084
0.07209
-0.00227
-0.00519
-0.00657
-0.00960
0.06501
0.08630
-0.00898
-0.02142
0.06148
-0.00400
-0.00394
0.05804
-0.00808
-0.00345
0.10469
-0.00446
-0.03283
-0.02032
-0.03339
0.12409
0.06609
-0.01884
0.01307
0.08759
0.08399
0.00532
0.00419
-0.05427
-0.03164
0.04953
-0.01317
-0.00334
-0.01617
0.00948
0.07077
0.07126
-0.00563
-0.00581
0.07121
-0.00574
-0.00626
0.07118
-0.00560
-0.00546
0.07071
-0.00631
-0.00566
-0.00593
-0.00557
0.07109
0.07117
-0.00560
-0.00571
0.07109
0.07124
-0.00553
-0.00575
-0.00571
-0.00577
0.07112
-0.00565
-0.00567
-0.00569
-0.00561
0.07151
0.07024
-0.00568
-0.00429
0.07003
-0.00685
-0.00581
0.07030
-0.00751
-0.00769
0.07175
-0.00533
-0.00662
-0.00429
-0.00585
0.07141
0.07022
-0.00653
-0.00584
0.06969
-0.00604
-0.00474
0.07122
-0.00628
-0.00806
0.07120
-0.00558
-0.00661
-0.00506
-0.00541
0.05548
0.05610
0.07704
0.07630
0.05673
0.05615
0.07705
0.07763
-0.01567
-0.01704
0.04892
-0.01559
-0.01685
0.04937
-0.01697
0.05006
-0.01696
0.04952
0.05513
0.05655
0.07720
0.07609
0.05655
0.05571
0.07647
0.07717
-0.01608
-0.01748
0.04850
-0.01698
-0.01897
0.04918
-0.01722
0.05006
-0.01794
0.04922
0.05042
0.05063
0.07513
0.07949
0.05168
0.06899
0.07690
0.06205
-0.01710
-0.01465
0.04764
-0.00243
-0.02078
0.03278
-0.01508
0.04840
-0.03101
0.03165
0.05825
0.04182
0.06945
0.08194
0.06241
0.07044
0.08822
0.07252
0.01674
-0.00629
0.03677
-0.01953
-0.01303
0.04440
-0.03338
0.00091
-0.01925
0.06074
0.05673
0.05602
0.07670
0.07896
0.05609
0.05836
0.07797
0.07641
-0.01645
-0.01781
0.04934
-0.01829
-0.02099
0.04772
-0.01759
0.04965
-0.01906
0.05381
0.05558
0.05611
0.07701
0.07673
0.05588
0.05575
0.07651
0.07701
-0.01413
-0.01548
0.04873
-0.01563
0.04906
-0.01435
-0.01565
0.04952
-0.01588
0.04925
0.05656
0.05625
0.07708
0.07758
0.05628
0.05640
0.07721
0.07729
-0.01471
-0.01615
0.04977
-0.01477
-0.01620
0.04963
-0.01606
0.04952
-0.01615
0.04981
0.05607
0.05671
0.07765
0.07691
0.05655
0.05617
0.07715
0.07750
-0.01456
-0.01597
0.04945
-0.01452
-0.01592
0.05005
-0.01595
0.04988
-0.01591
0.04945
0.05557
0.05635
0.07739
0.07661
0.05592
0.05589
0.07687
0.07688
-0.01419
-0.01562
0.04887
-0.01560
0.04923
-0.01407
-0.01548
0.04965
-0.01549
0.04929
0.05499
0.05602
0.07696
0.07611
0.05593
0.05493
0.07577
0.07698
-0.01462
-0.01619
0.04817
-0.01422
-0.01574
0.04942
-0.01588
0.04926
-0.01553
0.04841
0.05503
0.05511
0.07626
0.07669
0.05521
0.05595
0.07549
0.07515
-0.01490
-0.01630
0.04758
-0.01657
0.04881
-0.01580
-0.01706
0.04869
-0.01734
0.04933
0.05590
0.05656
0.07736
0.07658
0.05646
0.05567
0.07682
0.07750
-0.01475
-0.01625
0.04945
-0.01604
0.04970
-0.01470
-0.01619
0.05001
-0.01600
0.04879
0.05617
0.05463
0.07548
0.07734
0.05450
0.05651
0.07746
0.07564
-0.01357
-0.01497
0.04932
-0.01381
-0.01526
0.04813
-0.01502
0.04771
-0.01518
0.04992
0.05753
0.05595
0.07609
0.07814
0.05490
0.05866
0.07921
0.07618
-0.01643
-0.01734
0.05104
-0.01786
-0.01838
0.05034
-0.01802
0.04790
-0.02102
0.05043
0.05594
0.05429
0.07561
0.07727
0.05472
0.05587
0.07585
0.07458
-0.01482
-0.01634
0.04916
-0.01603
0.04805
-0.01394
-0.01583
0.04716
-0.01498
0.04921
0.05686
0.05663
0.07736
0.07771
0.05645
0.05677
0.07768
0.07748
-0.01572
-0.01725
0.05017
-0.01693
0.04966
-0.01580
-0.01735
0.05008
-0.01700
0.05008
0.05716
0.05656
0.07753
0.07782
0.05555
0.05696
0.07825
0.07613
-0.01663
-0.01796
0.05070
-0.01795
0.04908
-0.01646
-0.01780
0.04977
-0.01775
0.04996
0.05699
0.05557
0.07623
0.07803
0.05549
0.05671
0.07760
0.07664
-0.01436
-0.01582
0.05024
-0.01570
0.04859
-0.01453
-0.01600
0.04909
-0.01586
0.05011
0.05604
0.05713
0.07812
0.07672
0.05682
0.05608
0.07713
0.07772
-0.01488
-0.01639
0.04951
-0.01474
-0.01621
0.05040
-0.01617
0.05017
-0.01606
0.04926
0.05497
0.05616
0.07724
0.07610
0.05592
0.05551
0.07649
0.07687
-0.01389
-0.01519
0.04822
-0.01374
-0.01504
0.04949
-0.01547
0.04935
-0.01530
0.04894
0.04123
0.04745
0.07478
0.07047
0.05904
0.06265
0.07363
0.07271
-0.01618
-0.00883
0.04513
-0.01524
0.05292
0.02357
-0.00145
0.02082
-0.03406
-0.00574
0.04991
0.05361
0.08481
0.07582
0.06601
0.06095
0.07587
0.07915
-0.00992
-0.02907
0.02956
-0.01898
-0.01795
0.04824
-0.02877
0.04649
-0.02069
0.05438
0.05538
0.05460
0.07546
0.07672
0.05573
0.05723
0.07737
0.07583
-0.01530
-0.01616
0.04844
-0.01691
0.04944
-0.01604
-0.01718
0.04713
-0.01735
0.05169
-0.13128
-0.07250
0.09997
0.18050
-0.07999
-0.04120
-0.08870
-0.11283
0.07053
-0.13038
-0.11868
0.13813
0.04978
0.05586
0.07521
0.06818
0.05381
0.05140
0.07375
0.07593
-0.00721
-0.00542
0.04473
-0.01123
0.04620
-0.00903
-0.00822
0.04983
-0.01217
0.04389
0.04764
0.06152
0.08175
0.06617
0.05701
0.05038
0.07257
0.07865
-0.00933
-0.00854
0.04337
-0.01259
0.04943
-0.01207
-0.01289
0.05385
-0.01413
0.04336
0.05611
0.05638
0.07734
0.07696
0.05634
0.05614
0.07715
0.07726
-0.01447
-0.01590
0.04948
-0.01584
0.04968
-0.01437
-0.01579
0.04967
-0.01574
0.04937
0.05638
0.05646
0.07743
0.07734
0.05665
0.05612
0.07698
0.07759
-0.01466
-0.01602
0.04968
-0.01609
0.05001
-0.01456
-0.01593
0.04982
-0.01598
0.04946
0.05635
0.05649
0.07753
0.07733
0.05665
0.05614
0.07700
0.07740
-0.01481
-0.01614
0.04962
-0.01624
0.05017
-0.01455
-0.01596
0.04974
-0.01589
0.04947
0.05781
0.05637
0.07718
0.07817
0.05669
0.05703
0.07833
0.07744
-0.01761
-0.01886
0.05188
-0.01899
0.05013
-0.01567
-0.01703
0.04970
-0.01704
0.05009
-0.01805
-0.01873
-0.01769
-0.01884
0.08540
0.08472
-0.01931
-0.01814
0.08434
-0.01847
-0.01293
0.08287
-0.01630
-0.02179
0.08905
-0.01801
-0.01667
-0.01805
-0.01689
0.08536
0.08586
-0.01678
-0.01739
0.08527
-0.01744
-0.01720
0.08597
-0.01711
-0.01672
0.08510
-0.01812
-0.01699
-0.01859
-0.01761
0.08476
0.08503
-0.01725
-0.01756
0.08553
-0.01758
-0.01813
-0.01708
-0.01747
0.08527
0.08466
-0.01700
-0.01763
-0.01671
-0.01853
0.08404
0.08549
-0.01624
-0.01815
-0.01656
-0.01864
0.08396
0.08589
-0.01900
-0.01750
0.08603
-0.01633
-0.01897
-0.01637
-0.01709
0.08585
0.08426
-0.01883
-0.01637
0.08585
-0.01732
-0.01771
0.08645
-0.01746
-0.01621
0.08474
-0.01926
-0.01897
-0.02192
-0.01260
0.08700
0.08451
-0.01863
-0.01688
0.08407
-0.01037
-0.02543
0.08782
-0.02167
-0.01678
0.08524
-0.01504
-0.01861
0.01199
-0.06132
0.08352
0.03544
-0.01883
-0.01684
0.08414
-0.01602
-0.01568
0.08269
0.02060
-0.09412
0.04264
0.01736
-0.08860
-0.02250
-0.00297
0.05894
0.08297
-0.00134
-0.02878
-0.02513
-0.00770
0.04667
0.08916
-0.00652
-0.01391
0.07517
-0.01722
-0.01715
-0.01734
-0.01716
0.08537
0.08567
-0.01711
-0.01792
0.08594
-0.01797
-0.01688
0.08588
-0.01703
-0.01705
0.08515
-0.01715
-0.01704
-0.01710
-0.01719
0.08550
0.08581
-0.01729
-0.01695
-0.01718
-0.01727
0.08555
0.08598
-0.01710
-0.01715
0.08568
-0.01854
-0.01689
-0.01964
-0.01439
0.08556
0.08357
-0.01674
-0.01732
0.08526
-0.01474
-0.01972
0.08511
-0.01720
-0.01816
0.08613
-0.01699
-0.01810
-0.01675
-0.01742
0.08515
0.08527
-0.01818
-0.01522
0.08265
-0.01597
-0.01998
0.08699
-0.01698
-0.01817
0.08569
0.04880
0.04772
0.04732
0.04833
0.04802
0.04773
0.04795
0.04772
0.04586
0.09776
-0.00587
-0.02588
0.05565
0.04396
0.04513
0.04814
0.04835
0.04836
0.04859
0.04840
0.04822
0.04811
0.04878
0.04840
0.04803
0.04681
0.04773
0.04733
0.04827
0.04885
0.04646
0.04793
0.04964
0.04875
0.04709
0.04891
0.04833
0.05043
0.04511
0.04836
0.04835
0.04701
0.04890
0.04799
0.04835
0.04783
0.04905
0.04829
0.10369
-0.05279
0.00077
0.05183
0.04717
0.04444
0.04222
0.04883
0.05153
0.04821
0.04865
0.04844
0.02066
-0.10160
-0.05939
0.15353
0.09701
0.00038
0.18319
-0.17583
0.00843
-0.05844
-0.09820
-0.13077
-0.17802
0.06773
0.00262
-0.00084
0.01723
-0.03928
0.09105
-0.07487
-0.00131
0.06413
0.07537
-0.05214
0.04066
0.40209
0.05836
-0.16773
0.01371
0.16803
-0.19948
-0.02638
0.21655
0.07722
0.22008
-0.08438
0.01359
0.22239
0.05663
0.10901
-0.12058
-0.03818
-0.02879
0.22133
0.10479
-0.06609
0.04256
0.02463
0.03846
-0.07541
0.07896
-0.12005
-0.11539
0.19637
-0.07604
0.13237
-0.05594
-0.09094
-0.13812
0.03852
0.20014
-0.11130
-0.05542
-0.07415
-0.02046
-0.10142
-0.09830
-0.02078
0.02245
-0.06267
-0.03520
-0.06400
0.02941
0.07670
0.16684
-0.05502
-0.06119
0.20352
0.09220
-0.10257
0.14140
-0.08521
0.02679
0.04858
0.16933
-0.05099
-0.05216
-0.03865
-0.07265
-0.13413
0.15291
-0.21920
0.03729
-0.07941
0.15144
0.03280
0.08222
0.16819
0.07761
0.08415
-0.17618
0.18902
0.08803
-0.09979
0.17714
0.07586
0.01642
0.21110
-0.01918
0.11105
-0.10368
0.33910
-0.03805
0.08791
0.08536
0.17779
0.13994
-0.08762
-0.12694
0.09109
0.18345
0.17973
-0.04436
0.00123
-0.13449
-0.01530
0.00053
-0.07213
-0.05919
0.02552
-0.10916
-0.17454
-0.01294
-0.01824
0.24433
-0.01556
0.11430
0.04656
0.13261
-0.11414
-0.12884
0.15174
-0.19061
0.36604
-0.06199
0.04340
-0.06553
0.03751
0.21026
-0.06282
-0.04941
0.13044
0.27352
0.15846
0.05502
0.01311
0.04456
0.03362
0.10314
-0.07779
0.14049
-0.01122
-0.02746
-0.08385
-0.06745
-0.10380
0.14953
0.08682
0.05086
0.07359
0.32781
0.18919
0.07611
-0.05193
0.01709
-0.14563
0.20619
0.07544
0.30592
-0.02714
0.15798
-0.11583
-0.06330
-0.05515
0.08116
0.06822
0.22719
-0.02130
-0.07956
-0.05997
-0.07564
-0.12147
-0.09126
-0.01621
-0.10059
0.01957
0.05388
0.23450
0.02250
-0.02848
-0.18981
0.07531
-0.15905
-0.05463
-0.16036
-0.10653
-0.06461
0.09140
-0.13215
-0.15228
0.07505
0.11556
-0.05527
0.01301
-0.14269
-0.02199
-0.16605
0.08120
-0.21949
-0.06859
-0.22673
-0.04267
-0.21748
-0.04780
-0.21216
-0.03604
-0.20928
-0.11971
-0.20354
-0.11402
0.10000
