# vtk DataFile Version 3.0
Point representing Sub_cellular elem model
ASCII

DATASET UNSTRUCTURED_GRID
POINTS 721 float
0.00336 1.72343 0.73230 
0.00761 1.73322 -1.41691 
1.74724 1.06711 -0.33666 
1.74722 -1.08619 -0.33920 
0.00622 -1.75127 -1.41999 
0.00685 -1.74734 0.72967 
1.08128 -0.00880 1.41642 
-1.05438 -0.01994 1.42215 
1.08578 -0.00878 -2.07867 
-1.06785 -0.00824 -2.08508 
-1.73400 1.06428 -0.34369 
-1.73510 -1.08382 -0.34536 
0.00478 2.04215 -0.34123 
1.02968 1.64929 0.29469 
0.64018 1.01310 1.32621 
-0.62325 1.00409 1.32086 
-1.01928 1.64297 0.29057 
1.03342 1.65217 -0.97227 
0.64372 1.01769 -1.99861 
-0.62548 1.01801 -2.00255 
-1.02043 1.65152 -0.97766 
2.05852 -0.00951 -0.33713 
1.66342 0.62367 0.68787 
1.66892 0.62557 -1.36257 
1.03281 -1.67082 -0.97571 
1.03080 -1.66916 0.29148 
1.66338 -0.64327 0.68654 
1.66871 -0.64368 -1.36399 
0.00452 -2.06213 -0.34536 
0.64296 -1.03532 -2.00052 
-0.62660 -1.03496 -2.00410 
-1.02189 -1.66965 -0.98038 
0.63952 -1.03042 1.32776 
-0.61892 -1.03396 1.32821 
-1.01908 -1.66671 0.28800 
-0.01051 0.52386 2.12125 
-1.64419 0.61511 0.68424 
-1.64462 -0.64325 0.68423 
0.00996 -0.00852 -2.39232 
-1.65432 0.62597 -1.37142 
-1.65505 -0.64268 -1.37227 
-2.04428 -0.00960 -0.34451 
0.00362 1.95729 0.22914 
0.52621 1.75735 0.55285 
0.32761 1.43139 1.07496 
-0.31749 1.42662 1.07328 
-0.51840 1.75253 0.55055 
0.00622 1.96287 -0.91228 
0.53095 1.76325 -1.23414 
0.33228 1.43959 -1.75771 
-0.31520 1.43971 -1.75969 
-0.51676 1.76313 -1.23714 
1.45258 1.40863 -0.01420 
1.45456 1.40965 -0.66060 
1.97736 0.56210 -0.33662 
1.77567 0.88493 0.18613 
1.77877 0.88615 -0.85981 
1.97733 -0.58113 -0.33801 
1.45434 -1.42850 -0.66374 
1.45286 -1.42806 -0.01730 
1.77577 -0.90443 0.18407 
1.77860 -0.90470 -0.86190 
0.52988 -1.78165 -1.23754 
0.00508 -1.98164 -0.91597 
0.33112 -1.45738 -1.76031 
-0.31659 -1.45716 -1.76206 
-0.51826 -1.78114 -1.24013 
0.52874 -1.77856 0.54973 
0.00509 -1.97917 0.22518 
0.33094 -1.45332 1.07439 
-0.31332 -1.45371 1.07362 
-0.51627 -1.77739 0.54792 
0.90667 0.51532 1.44336 
1.42228 0.31299 1.11083 
1.42206 -0.33208 1.10999 
0.90498 -0.53362 1.44226 
0.57825 -0.00773 1.68868 
-0.88422 0.50392 1.44011 
-0.88033 -0.53942 1.44896 
-0.55009 -0.00388 1.69671 
-1.39906 0.30202 1.11075 
-1.39874 -0.33750 1.11219 
0.90453 0.51479 -2.10877 
1.42744 0.31476 -1.78452 
1.42730 -0.33253 -1.78519 
0.90421 -0.53232 -2.10977 
0.58124 -0.00865 -2.30965 
-0.88601 0.51524 -2.11425 
-0.88663 -0.53186 -2.11498 
-0.56186 -0.00837 -2.31315 
-1.41101 0.31539 -1.79269 
-1.41140 -0.33179 -1.79311 
-1.44015 1.40365 -0.01976 
-1.44209 1.40799 -0.66727 
-1.76031 0.87941 0.18034 
-1.76547 0.88551 -0.86806 
-1.96326 0.56026 -0.34407 
-1.44336 -1.42661 -0.66956 
-1.44108 -1.42519 -0.02206 
-1.76119 -0.90210 0.17919 
-1.76642 -0.90318 -0.86936 
-1.96393 -0.57957 -0.34490 
0.56046 1.94019 -0.03474 
-0.55160 1.93754 -0.03725 
0.56226 1.94226 -0.64508 
-0.55100 1.94129 -0.64792 
0.90300 1.38134 0.86512 
1.05608 1.75302 -0.33846 
1.39766 1.19473 0.56145 
0.00944 1.03751 1.42512 
1.20942 0.88909 1.05614 
0.32006 0.54415 1.65774 
-0.89089 1.37173 0.86116 
-0.29117 0.54564 1.64617 
-1.19107 0.87686 1.05242 
-1.04513 1.75020 -0.34318 
-1.38301 1.18561 0.55680 
0.90882 1.38626 -1.54368 
1.40269 1.19735 -1.23711 
0.00947 1.04229 -2.10210 
1.21483 0.89170 -1.73151 
0.31550 0.54780 -2.28975 
-0.89309 1.38646 -1.54897 
-0.29574 0.54796 -2.29167 
-1.19835 0.89217 -1.73860 
-1.38854 1.19732 -1.24460 
1.95524 0.29570 0.21870 
1.95848 0.29649 -0.89284 
1.95523 -0.31523 0.21800 
1.95843 -0.31496 -0.89357 
1.76517 -0.00982 0.71171 
1.77061 -0.00902 -1.38739 
1.05614 -1.77234 -0.34220 
1.40224 -1.21566 -1.23971 
0.56173 -1.96142 -0.64905 
0.90800 -1.40435 -1.54643 
1.39816 -1.21431 0.55915 
0.56119 -1.96035 -0.03879 
0.90449 -1.40093 0.86358 
1.20917 -0.90816 1.05479 
1.21437 -0.90957 -1.73335 
-0.55211 -1.96050 -0.65149 
-0.55157 -1.95898 -0.04099 
0.00849 -1.05960 -2.10386 
0.31502 -0.56507 -2.29072 
-0.89454 -1.40369 -1.55110 
-0.29633 -0.56491 -2.29254 
-1.19939 -0.90886 -1.73985 
-1.04613 -1.77030 -0.34630 
-1.38981 -1.21454 -1.24636 
0.01084 -1.05957 1.42998 
0.31036 -0.55237 1.66852 
-0.88859 -1.40042 0.86128 
-0.29339 -0.55511 1.67109 
-1.18931 -0.90965 1.05498 
-1.38303 -1.21203 0.55590 
-1.74456 -0.01426 0.70917 
-1.93822 0.29245 0.21322 
-1.93863 -0.31528 0.21285 
-1.75621 -0.00827 -1.39652 
-1.94494 0.29663 -0.90169 
-1.94529 -0.31399 -0.90211 
0.00332 1.85670 0.49191 
0.26381 1.75724 0.65319 
0.16472 1.59411 0.91312 
-0.15694 1.59199 0.91236 
-0.25688 1.75450 0.65199 
0.00694 1.86470 -1.17578 
0.26852 1.76507 -1.33621 
0.16950 1.60374 -1.59726 
-0.15328 1.60378 -1.59824 
-0.25376 1.76505 -1.33775 
1.61724 1.24786 -0.17580 
1.61823 1.24830 -0.49808 
1.87884 0.82580 -0.33656 
1.77830 0.98674 -0.07594 
1.77988 0.98739 -0.59742 
1.87881 -0.84485 -0.33858 
1.61814 -1.26726 -0.50095 
1.61732 -1.26712 -0.17866 
1.77836 -1.00606 -0.07829 
1.77977 -1.00619 -0.59977 
0.26726 -1.78332 -1.33948 
0.00561 -1.88307 -1.17917 
0.16819 -1.62164 -1.60013 
-0.15470 -1.62152 -1.60098 
-0.25522 -1.78308 -1.34080 
0.26696 -1.77968 0.65021 
0.00588 -1.87966 0.48846 
0.16851 -1.61751 0.91139 
-0.15296 -1.61735 0.91098 
-0.25388 -1.77911 0.64940 
1.00857 0.25132 1.44651 
1.26298 0.15072 1.27858 
1.26327 -0.16891 1.27769 
1.00963 -0.26907 1.44447 
0.84191 -0.00838 1.56186 
-0.98466 0.23932 1.44742 
-0.98216 -0.27792 1.45261 
-0.81441 -0.01727 1.56898 
-1.23821 0.13895 1.28088 
-1.23753 -0.17787 1.28255 
1.00588 0.25224 -2.11046 
1.26656 0.15250 -1.94884 
1.26649 -0.17016 -1.94916 
1.00574 -0.26976 -2.11096 
0.84471 -0.00871 -2.21062 
-0.98756 0.25274 -2.11648 
-0.98787 -0.26926 -2.11684 
-0.82597 -0.00830 -2.21568 
-1.24930 0.15311 -1.95624 
-1.24950 -0.16952 -1.95645 
-1.60427 1.24400 -0.18210 
-1.60554 1.24606 -0.50499 
-1.76428 0.98266 -0.08248 
-1.76677 0.98578 -0.60505 
-1.86513 0.82333 -0.34388 
-1.60672 -1.26508 -0.50701 
-1.60538 -1.26445 -0.18413 
-1.76529 -1.00352 -0.08395 
-1.76780 -1.00427 -0.60657 
-1.86605 -0.84274 -0.34511 
0.00414 2.02003 -0.05140 
0.00548 2.02287 -0.63123 
0.28914 2.01616 -0.19230 
-0.28013 2.01503 -0.19366 
0.28996 2.01739 -0.48878 
-0.27962 2.01669 -0.49022 
0.78425 1.72117 0.43223 
1.25481 1.54400 0.14429 
0.80908 1.81685 0.13023 
0.98411 1.53079 0.59052 
1.04979 1.72611 -0.01714 
1.22461 1.44025 0.44324 
0.48864 1.23680 1.21335 
0.78215 0.77284 1.40253 
0.78611 1.20784 1.11204 
0.33227 1.03443 1.40014 
0.93566 0.97014 1.20572 
0.47984 0.79298 1.50662 
-0.47518 1.22950 1.21012 
-0.76240 0.76287 1.39638 
-0.31450 1.02948 1.39642 
-0.77209 1.19774 1.10775 
-0.45841 0.78749 1.49892 
-0.91844 0.95858 1.20089 
-0.77518 1.71516 0.42895 
-1.24325 1.53811 0.13944 
-0.79980 1.81241 0.12680 
-0.97317 1.52262 0.58655 
-1.03935 1.72167 -0.02151 
-1.21234 1.43226 0.43868 
0.78862 1.72540 -1.11164 
1.25772 1.54581 -0.82034 
0.81188 1.81946 -0.80891 
1.05175 1.72758 -0.65995 
0.98924 1.53489 -1.26875 
1.22911 1.44311 -1.11982 
0.49202 1.24234 -1.89301 
0.78265 0.77264 -2.07127 
0.79151 1.21295 -1.78942 
0.33130 1.03692 -2.07513 
0.94012 0.97275 -1.88060 
0.47992 0.79675 -2.16627 
-0.47427 1.24256 -1.89599 
-0.76416 0.77303 -2.07605 
-0.31254 1.03709 -2.07715 
-0.77445 1.21326 -1.79417 
-0.46077 0.79700 -2.16921 
-0.92269 0.97317 -1.88625 
-0.77506 1.72508 -1.11596 
-1.24514 1.54471 -0.82652 
-0.79971 1.81855 -0.81308 
-1.03991 1.72605 -0.66504 
-0.97491 1.53479 -1.27425 
-1.21545 1.44278 -1.12632 
2.03807 0.28081 -0.33682 
2.03805 -0.29984 -0.33753 
2.03189 0.13876 -0.05262 
2.03357 0.13912 -0.62144 
2.03189 -0.15807 -0.05298 
2.03355 -0.15785 -0.62180 
1.73708 0.76270 0.44337 
1.55728 0.47221 0.91242 
1.54614 0.91999 0.64283 
1.45443 0.77146 0.88281 
1.83133 0.46003 0.46725 
1.73917 0.31159 0.70676 
1.74157 0.76436 -1.11757 
1.56310 0.47413 -1.58721 
1.55148 0.92229 -1.31780 
1.46022 0.77385 -1.55793 
1.83589 0.46132 -1.14165 
1.74463 0.31292 -1.38183 
1.25733 -1.56457 -0.82367 
0.78778 -1.74394 -1.11511 
1.05140 -1.74657 -0.66361 
1.22856 -1.46157 -1.12288 
0.81128 -1.83834 -0.81265 
0.98848 -1.55325 -1.27188 
1.25542 -1.56361 0.14108 
0.78605 -1.74154 0.42903 
1.05036 -1.74576 -0.02075 
1.22549 -1.45994 0.44051 
0.81014 -1.83691 0.12652 
0.98561 -1.55068 0.58800 
1.73716 -0.78231 0.44167 
1.55709 -0.49166 0.91139 
1.83131 -0.47966 0.46623 
1.73908 -0.33120 0.70610 
1.54630 -0.93957 0.64095 
1.45434 -0.79090 0.88129 
1.74136 -0.78268 -1.11934 
1.56292 -0.49205 -1.58825 
1.83578 -0.47958 -1.14274 
1.74454 -0.33098 -1.38255 
1.55115 -0.94048 -1.31985 
1.45990 -0.79183 -1.55961 
0.00469 -2.04216 -0.63518 
0.00464 -2.04088 -0.05557 
0.28956 -2.03690 -0.49288 
0.28940 -2.03631 -0.19650 
-0.28034 -2.03636 -0.49412 
-0.28024 -2.03564 -0.19767 
0.49106 -1.26004 -1.89529 
0.78212 -0.79021 -2.07275 
0.79070 -1.23079 -1.79176 
0.93951 -0.99051 -1.88251 
0.33042 -1.05440 -2.07698 
0.47928 -0.81418 -2.16772 
-0.47555 -1.25974 -1.89796 
-0.76504 -0.78980 -2.07718 
-0.31361 -1.05422 -2.07881 
-0.77576 -1.23030 -1.79601 
-0.46164 -0.81393 -2.17045 
-0.92379 -0.98997 -1.88767 
-0.77656 -1.74311 -1.11884 
-1.24651 -1.56302 -0.82905 
-0.80106 -1.83722 -0.81624 
-0.97641 -1.55237 -1.27667 
-1.04121 -1.74498 -0.66802 
-1.21687 -1.46041 -1.12857 
0.49086 -1.25690 1.21355 
0.78027 -0.79083 1.40248 
0.78699 -1.22665 1.11178 
0.93522 -0.98868 1.20507 
0.33391 -1.05425 1.40228 
0.47614 -0.80736 1.51130 
-0.47146 -1.25864 1.21288 
-0.75766 -0.79491 1.40637 
-0.31256 -1.05671 1.40250 
-0.76857 -1.22818 1.11066 
-0.45506 -0.81165 1.51324 
-0.91484 -0.99127 1.20593 
-0.77407 -1.73970 0.42630 
-1.24375 -1.56080 0.13696 
-0.79966 -1.83490 0.12353 
-1.03986 -1.74335 -0.02455 
-0.97203 -1.54880 0.58496 
-1.21219 -1.45737 0.43694 
0.11981 -0.51067 1.90556 
-0.11607 -0.51484 2.19499 
0.45709 0.15618 1.95327 
0.38562 -0.35803 2.60888 
-0.35219 -0.35945 1.95954 
-0.50067 -0.19434 2.18846 
-1.53596 0.46232 0.91036 
-1.71992 0.75564 0.43854 
-1.43525 0.76049 0.87948 
-1.52899 0.91063 0.63853 
-1.71874 0.30480 0.70380 
-1.81293 0.45427 0.46279 
[...]
CELL_DATA 2155
SCALARS Strain double 
LOOKUP_TABLE default 
-0.08745
-0.08935
-0.08799
-0.08836
-0.08991
-0.08817
-0.08713
-0.08775
-0.08762
-0.08716
-0.08805
-0.08756
-0.08744
-0.08836
-0.08826
-0.08737
-0.08708
-0.08844
-0.08795
-0.08861
-0.08684
-0.08855
-0.08781
-0.08779
-0.08693
-0.09065
-0.08658
-0.08465
-0.08890
-0.08812
-0.09773
-0.07593
-0.07274
-0.09892
-0.07009
-0.10472
-0.10482
-0.06592
-0.06688
-0.07292
-0.08759
-0.08746
-0.08790
-0.08737
-0.08758
-0.08748
-0.08750
-0.08735
-0.08740
-0.08744
-0.08932
-0.08735
-0.08589
-0.08744
-0.08923
-0.08794
-0.08804
-0.08656
-0.08698
-0.08915
-0.03495
-0.03505
0.06924
0.06906
0.06920
0.06926
-0.03592
-0.03553
0.06962
0.06879
0.06834
0.06944
-0.02782
-0.03948
0.07627
0.05373
0.06899
0.08455
-0.03209
-0.04202
0.05868
0.07617
0.07989
0.06864
-0.03807
-0.03776
0.06915
0.07179
0.07066
0.06865
-0.03367
-0.03373
0.06942
0.06845
0.06868
0.06951
-0.03417
-0.03414
0.06929
0.06979
0.06967
0.06942
-0.03408
-0.03406
0.06998
0.06932
0.06941
0.07000
-0.03349
-0.03351
0.06917
0.06896
0.06894
0.06917
-0.03372
-0.03371
0.06883
0.06833
0.06823
0.06894
-0.03470
-0.03416
0.06857
0.06822
0.06885
0.06804
-0.03450
-0.03435
0.06985
0.06918
0.06896
0.06994
-0.03311
-0.03308
0.06805
0.06946
0.06928
0.06814
-0.03652
-0.03740
0.06933
0.07010
0.07092
0.07072
-0.03357
-0.03293
0.06814
0.06811
0.06851
0.06771
-0.03517
-0.03503
0.06959
0.07003
0.06996
0.06976
-0.03550
-0.03527
0.06886
0.07061
0.07038
0.06866
-0.03405
-0.03397
0.06871
0.07004
0.07012
0.06889
-0.03430
-0.03423
0.07024
0.06917
0.06933
0.07021
-0.03346
-0.03361
0.06958
0.06867
0.06873
0.06944
-0.02389
-0.04469
0.08554
0.07189
0.04736
0.10179
-0.02907
-0.04634
0.04933
0.08826
0.10369
0.07246
-0.03497
-0.03487
0.06801
0.07064
0.07226
0.06708
-0.08431
-0.08320
0.09915
0.00706
0.13327
-0.02532
-0.02719
0.06504
0.06395
0.06154
0.06751
-0.02901
-0.02993
0.07261
0.06222
0.06049
0.07326
-0.03393
-0.03388
0.06956
0.06940
0.06931
0.06955
-0.03402
-0.03403
0.06987
0.06936
0.06944
0.06985
-0.03401
-0.03396
0.06982
0.06942
0.06947
0.06963
-0.03675
-0.03673
0.06990
0.07162
0.07088
0.06976
-0.06587
-0.04556
0.07845
0.07852
0.03306
0.03264
-0.06731
-0.04669
0.07878
0.07887
0.03302
0.03377
-0.06563
-0.04380
0.07904
0.07668
0.03059
0.03239
-0.06672
-0.04668
0.07627
0.08116
0.03523
0.02988
-0.06871
-0.04858
0.07864
0.08083
0.03456
0.03325
-0.06642
-0.04587
0.07989
0.08009
0.03449
0.03430
-0.06513
-0.04447
0.07983
0.07918
0.03329
0.03410
-0.06574
-0.04504
0.07942
0.08037
0.03459
0.03396
-0.06563
-0.04494
0.08042
0.07935
0.03390
0.03476
-0.06509
-0.04436
0.07997
0.07913
0.03334
0.03417
-0.06641
-0.04606
0.07865
0.07995
0.03439
0.03318
-0.06544
-0.04465
0.07868
0.07980
0.03387
0.03323
-0.06538
-0.04462
0.07911
0.07891
0.03300
0.03347
-0.06652
-0.04579
0.07971
0.07902
0.03301
0.03381
-0.06625
-0.04548
0.08004
0.07922
0.03391
0.03455
-0.06532
-0.04459
0.07854
0.07953
0.03363
0.03291
-0.06487
-0.04404
0.07852
0.07965
0.03356
0.03280
-0.06692
-0.04675
0.07895
0.08034
0.03502
0.03404
-0.06585
-0.04487
0.07842
0.07990
0.03385
0.03241
-0.06675
-0.04608
0.07984
0.08002
0.03462
0.03451
-0.06470
-0.04394
0.07986
0.07864
0.03276
0.03411
-0.06689
-0.04637
0.07994
0.08051
0.03512
0.03435
-0.06575
-0.04498
0.07891
0.08076
0.03498
0.03353
-0.06585
-0.04517
0.08078
0.07910
0.03379
0.03505
-0.06489
-0.04422
0.08017
0.07877
0.03295
0.03420
-0.06908
-0.04842
0.08136
0.08076
0.03413
0.03603
-0.06556
-0.04564
0.08092
0.07734
0.03205
0.03478
-0.06149
-0.04050
0.08201
0.07429
0.02870
0.03723
-0.06716
-0.04663
0.07591
0.08550
0.04195
0.03238
-0.06596
-0.04539
0.07707
0.08276
0.03504
0.03143
-0.06041
-0.04069
0.07716
0.07942
0.03402
0.03024
-0.06185
-0.04383
0.07787
0.07596
0.03334
0.03478
-0.06116
-0.04271
0.07718
0.07742
0.03346
0.03390
-0.05545
-0.04181
0.08037
0.07370
0.03589
0.03892
-0.02866
-0.03584
0.13281
0.14362
0.02549
0.02600
-0.06006
-0.03887
0.07345
0.07272
0.02720
0.03541
-0.06822
-0.04850
0.08999
0.08445
0.03497
0.04334
-0.02432
0.12085
0.16223
0.02580
0.02545
-0.05272
-0.03436
0.07393
0.06794
0.02801
0.03304
-0.05806
-0.03900
0.08515
0.06646
0.02524
0.04208
-0.06561
-0.04496
0.07967
0.07989
0.03410
0.03416
-0.06558
-0.04504
0.07948
0.08007
0.03433
0.03364
-0.06615
-0.04569
0.08013
0.07996
0.03423
0.03449
-0.06538
-0.04475
0.08002
0.07935
0.03352
0.03438
-0.06554
-0.04481
0.07994
0.07952
0.03397
0.03425
-0.06552
-0.04487
0.07986
0.08010
0.03444
0.03417
-0.06559
-0.04499
0.07982
0.08021
0.03457
0.03409
-0.06535
-0.04469
0.07983
0.07985
0.03418
0.03408
-0.06545
-0.04482
0.08005
0.07992
0.03425
0.03434
-0.06549
-0.04485
0.08011
0.07991
0.03422
0.03434
-0.06815
-0.04815
0.08110
0.07877
0.03404
0.03677
-0.06521
-0.04441
0.08010
0.07864
0.03286
0.03401
-0.06241
-0.03995
0.07714
0.07829
0.03086
0.02982
-0.06550
-0.04486
0.07876
0.08048
0.03464
0.03328
-0.06782
-0.04746
0.07945
0.08116
0.03653
0.03425
-0.06566
-0.04468
0.08008
0.07922
0.03367
0.03400
-0.06626
-0.04570
0.08091
0.07775
0.03320
0.03625
-0.06361
-0.04184
0.07621
0.08106
0.03462
0.02935
-0.06518
-0.04468
0.07914
0.07983
0.03429
0.03345
-0.06777
-0.04742
0.08120
0.08011
0.03506
0.03522
0.07177
0.07191
0.01962
0.01924
0.01605
0.01656
0.07152
0.07159
0.01888
0.02036
0.01679
0.01564
0.07182
0.07188
0.02080
0.01942
0.01611
0.01762
0.07174
0.07170
0.02063
0.01963
0.01654
0.01747
0.07233
0.07447
0.02101
0.01563
0.01471
0.01607
0.07073
0.07079
0.02077
0.01999
0.01665
0.01763
0.07174
0.07145
0.01978
0.01887
0.01523
0.01703
0.07508
0.08003
0.01649
0.02180
0.02115
0.00803
0.07009
0.07024
0.02082
0.01998
0.01644
0.01748
0.10256
0.09720
0.05147
0.02518
0.06911
0.02511
0.07683
0.07553
0.01385
0.01985
0.01453
0.01175
0.09179
0.17717
0.06767
0.02544
0.04776
0.02553
0.06579
0.06590
0.02534
0.01668
0.01472
0.02325
0.07231
0.07175
0.02060
0.01899
0.01566
0.01749
0.07027
0.06864
0.02455
0.01581
0.01176
0.02270
0.07142
0.07163
0.02045
0.02081
0.01753
0.01733
0.07214
0.07226
0.01976
0.02043
0.01741
0.01678
0.07239
0.07245
0.02037
0.02031
0.01717
0.01725
0.07204
0.07187
0.02029
0.02061
0.01739
0.01696
0.07201
0.07205
0.02058
0.02034
0.01718
0.01747
0.07170
0.07156
0.02109
0.02045
0.01729
0.01791
0.07195
0.07195
0.02074
0.02049
0.01729
0.01753
0.07249
0.07244
0.02043
0.02053
0.01732
0.01719
0.07171
0.07178
0.02026
0.02099
0.01788
0.01712
0.07132
0.07136
0.01918
0.02014
0.01701
0.01596
0.07101
0.07123
0.01991
0.02097
0.01786
0.01689
0.07071
0.07072
0.01990
0.02012
0.01700
0.01676
0.07165
0.07188
0.01930
0.02103
0.01788
0.01625
0.07070
0.07069
0.02038
0.01940
0.01602
0.01690
0.07250
0.07254
0.01977
0.02041
0.01707
0.01641
0.07065
0.07104
0.01953
0.02156
0.01852
0.01598
0.07217
0.07234
0.01919
0.02101
0.01794
0.01614
0.07164
0.07152
0.01896
0.02158
0.01850
0.01581
0.07082
0.07102
0.02051
0.02124
0.01801
0.01744
0.07185
0.07130
0.02116
0.01828
0.01460
0.01893
0.07344
0.07330
0.01969
0.01864
0.01570
0.01604
0.07556
0.07981
0.02269
0.01339
0.01387
0.01563
0.07047
0.07129
0.01940
0.02339
0.01984
0.01555
0.07239
0.07248
0.02078
0.01965
0.01630
0.01754
0.07262
0.07233
0.02060
0.01923
0.01618
0.01731
0.07093
0.07073
0.02085
0.02030
0.01651
0.01736
0.07271
0.07275
0.01998
0.02029
0.01723
0.01691
0.07155
0.07169
0.02077
0.02054
0.01731
0.01765
0.07148
0.07130
0.02131
0.02042
0.01723
0.01804
0.07195
0.07202
0.02089
0.02030
0.01702
0.01770
0.07264
0.07251
0.02032
0.02049
0.01726
0.01706
0.07155
0.07216
0.02008
0.02003
0.01715
0.01706
0.07189
0.07189
0.02018
0.02085
0.01789
0.01700
0.07669
0.07759
0.02481
0.02951
0.02406
0.02177
0.13670
0.00942
0.08077
0.02526
0.09502
0.02555
0.08226
0.07752
0.01715
0.01810
0.01145
0.01679
0.13497
-0.04413
0.05556
0.02532
0.09996
0.02552
0.07469
0.07488
0.02874
0.01262
0.01031
0.02415
0.06826
0.06654
0.02393
0.02050
0.01710
0.02241
0.06290
0.06259
0.02098
0.02752
0.02332
0.01866
0.07155
0.07226
0.01524
0.02403
0.02213
0.01166
0.07555
0.07492
0.01502
0.02185
0.01889
0.01161
0.07197
0.07198
0.02066
0.02058
0.01735
0.01755
0.07250
0.07283
0.01962
0.02056
0.01735
0.01646
0.07206
0.07211
0.01971
0.02116
0.01771
0.01649
0.06944
0.06952
-0.00724
-0.00787
0.07067
-0.00633
-0.00655
0.06796
-0.00835
-0.00674
0.07168
-0.00530
-0.00944
-0.00549
-0.00681
0.07115
0.07131
-0.00531
-0.00543
0.07058
-0.00649
-0.00585
0.07165
-0.00524
-0.00592
0.07048
-0.00602
-0.00516
-0.00651
-0.00571
0.07000
0.07118
-0.00557
-0.00668
0.07104
-0.00614
-0.00662
0.07034
0.07043
-0.00672
-0.00646
-0.00662
-0.00576
-0.00590
-0.00547
0.06981
0.07102
-0.00613
-0.00696
0.07003
0.07089
-0.00650
-0.00700
0.07153
-0.00501
-0.00614
-0.00566
-0.00717
-0.00542
-0.00531
0.07125
0.07013
-0.00699
-0.00584
0.07149
-0.00489
-0.00526
0.07203
-0.00487
-0.00626
0.07017
-0.00613
-0.00487
-0.00693
-0.00577
0.07235
0.07178
-0.00539
-0.00337
0.06805
-0.00858
-0.00547
0.06730
-0.01027
-0.00541
0.07467
-0.00036
-0.00728
-0.00462
-0.00841
0.06575
0.09374
-0.00419
-0.02056
0.06122
-0.00547
-0.00337
0.06129
-0.00661
-0.00261
0.10050
-0.00609
-0.02643
-0.02532
-0.02844
0.09915
0.06084
-0.02805
-0.00051
0.09924
0.07141
-0.01681
0.00044
-0.03015
-0.03800
0.05188
-0.00985
-0.00567
-0.01305
0.00403
0.07080
0.07122
-0.00570
-0.00580
0.07123
-0.00567
-0.00620
0.07115
-0.00566
-0.00549
0.07075
-0.00625
-0.00566
-0.00589
-0.00559
0.07115
0.07126
-0.00551
-0.00564
0.07113
0.07132
-0.00545
-0.00569
-0.00570
-0.00574
0.07113
-0.00564
-0.00559
-0.00568
-0.00556
0.07204
0.06978
-0.00575
-0.00338
0.06940
-0.00750
-0.00562
0.07013
-0.00828
-0.00857
0.07210
-0.00525
-0.00718
-0.00350
-0.00572
0.07198
0.07007
-0.00643
-0.00544
0.06911
-0.00645
-0.00405
0.07175
-0.00591
-0.00876
0.07122
-0.00578
-0.00696
-0.00466
-0.00491
0.05564
0.05549
0.07644
0.07637
0.05642
0.05621
0.07718
0.07735
-0.01567
-0.01700
0.04916
-0.01540
-0.01656
0.04880
-0.01703
0.04975
-0.01689
0.04951
0.05500
0.05641
0.07689
0.07611
0.05649
0.05538
0.07604
0.07732
-0.01572
-0.01717
0.04830
-0.01665
-0.01892
0.04912
-0.01688
0.04986
-0.01763
0.04920
0.04773
0.05145
0.07591
0.07415
0.05630
0.06362
0.07577
0.07054
-0.01711
-0.01390
0.04710
0.00380
-0.01285
0.03274
-0.01591
0.05052
-0.02844
0.02103
0.05270
0.04800
0.07579
0.07790
0.06828
0.05444
0.06019
0.07160
-0.00521
-0.01925
0.03428
-0.01909
-0.01607
0.04469
-0.03294
0.03396
-0.01676
0.05282
0.05702
0.05572
0.07652
0.07866
0.05605
0.05878
0.07853
0.07638
-0.01729
-0.01862
0.04971
-0.01942
-0.02126
0.04796
-0.01845
0.04956
-0.02042
0.05328
0.05534
0.05629
0.07721
0.07650
0.05614
0.05541
0.07612
0.07724
-0.01418
-0.01556
0.04848
-0.01563
0.04934
-0.01429
-0.01561
0.04969
-0.01579
0.04897
0.05662
0.05615
0.07694
0.07767
0.05617
0.05643
0.07725
0.07723
-0.01460
-0.01603
0.04983
-0.01469
-0.01612
0.04957
-0.01595
0.04936
-0.01608
0.04986
0.05612
0.05687
0.07779
0.07692
0.05668
0.05623
0.07722
0.07763
-0.01460
-0.01602
0.04952
-0.01456
-0.01598
0.05020
-0.01597
0.04998
-0.01593
0.04947
0.05556
0.05621
0.07721
0.07657
0.05554
0.05592
0.07702
0.07654
-0.01417
-0.01558
0.04898
-0.01559
0.04879
-0.01396
-0.01535
0.04953
-0.01540
0.04928
0.05505
0.05567
0.07655
0.07616
0.05568
0.05508
0.07596
0.07679
-0.01449
-0.01591
0.04830
-0.01406
-0.01550
0.04915
-0.01591
0.04896
-0.01547
0.04853
0.05503
0.05547
0.07673
0.07644
0.05515
0.05606
0.07591
0.07491
-0.01477
-0.01655
0.04784
-0.01573
0.04881
-0.01571
-0.01715
0.04885
-0.01699
0.04915
0.05601
0.05675
0.07757
0.07667
0.05658
0.05577
0.07690
0.07759
-0.01497
-0.01653
0.04954
-0.01621
0.04985
-0.01491
-0.01647
0.05016
-0.01615
0.04890
0.05590
0.05492
0.07583
0.07713
0.05485
0.05628
0.07716
0.07593
-0.01347
-0.01493
0.04898
-0.01375
-0.01521
0.04838
-0.01489
0.04815
-0.01511
0.04974
0.05731
0.05670
0.07667
0.07777
0.05612
0.05786
0.07879
0.07812
-0.01677
-0.01762
0.05096
-0.01774
-0.01840
0.05131
-0.01846
0.04873
-0.02073
0.04940
0.05548
0.05445
0.07580
0.07677
0.05518
0.05519
0.07528
0.07551
-0.01462
-0.01623
0.04882
-0.01571
0.04841
-0.01332
-0.01532
0.04750
-0.01433
0.04838
0.05684
0.05661
0.07730
0.07764
0.05638
0.05672
0.07768
0.07745
-0.01558
-0.01710
0.05022
-0.01682
0.04955
-0.01564
-0.01716
0.05009
-0.01687
0.04999
0.05736
0.05607
0.07708
0.07808
0.05499
0.05711
0.07834
0.07561
-0.01598
-0.01749
0.05085
-0.01705
0.04856
-0.01578
-0.01734
0.04925
-0.01678
0.05018
0.05701
0.05566
0.07639
0.07804
0.05558
0.05672
0.07760
0.07668
-0.01445
-0.01594
0.05026
-0.01577
0.04873
-0.01457
-0.01606
0.04914
-0.01590
0.05013
0.05603
0.05713
0.07811
0.07673
0.05688
0.05612
0.07716
0.07779
-0.01485
-0.01632
0.04951
-0.01469
-0.01612
0.05040
-0.01616
0.05021
-0.01603
0.04932
0.05523
0.05635
0.07750
0.07623
0.05612
0.05576
0.07691
0.07696
-0.01428
-0.01556
0.04867
-0.01392
-0.01520
0.04960
-0.01588
0.04961
-0.01551
0.04909
0.04443
0.05681
0.08018
0.07270
0.06099
0.07380
0.07947
0.07342
-0.01900
-0.01162
0.04724
-0.01725
0.05457
0.01286
-0.00913
0.03635
-0.04317
0.00711
0.06026
0.04805
0.07544
0.08337
0.06692
0.06780
0.08589
0.08125
0.01044
-0.01455
0.03836
-0.02299
-0.01692
0.05004
-0.03640
0.00586
-0.02322
0.05904
0.05715
0.05411
0.07512
0.07962
0.05506
0.05866
0.07837
0.07505
-0.01509
-0.01614
0.04956
-0.01659
0.04889
-0.01539
-0.01754
0.04569
-0.01668
0.05377
-0.11910
-0.13044
0.10891
0.14697
0.03906
-0.11931
-0.13004
-0.02208
0.08725
-0.05176
0.06263
0.17353
0.04988
0.05454
0.07230
0.06742
0.05236
0.05021
0.07307
0.07534
-0.00736
-0.00800
0.04553
-0.01029
0.04410
-0.00786
-0.00794
0.04950
-0.01081
0.04250
0.04764
0.06202
0.08201
0.06610
0.05786
0.04945
0.07179
0.07949
-0.00915
-0.00967
0.04258
-0.01183
0.05079
-0.01173
-0.01335
0.05480
-0.01347
0.04219
0.05614
0.05637
0.07733
0.07699
0.05634
0.05616
0.07719
0.07727
-0.01442
-0.01587
0.04953
-0.01578
0.04966
-0.01433
-0.01577
0.04966
-0.01569
0.04939
0.05634
0.05656
0.07753
0.07732
0.05674
0.05592
0.07673
0.07770
-0.01462
-0.01597
0.04961
-0.01604
0.05013
-0.01453
-0.01590
0.04994
-0.01592
0.04929
0.05634
0.05648
0.07756
0.07732
0.05656
0.05601
0.07691
0.07729
-0.01467
-0.01604
0.04962
-0.01604
0.05011
-0.01438
-0.01584
0.04971
-0.01564
0.04933
0.05860
0.05648
0.07732
0.07866
0.05697
0.05755
0.07907
0.07754
-0.01864
-0.01992
0.05293
-0.01994
0.05048
-0.01617
-0.01756
0.04973
-0.01751
0.05041
-0.01803
-0.01846
-0.01738
-0.01961
0.08488
0.08469
-0.01979
-0.01715
0.08467
-0.01609
-0.01898
0.08394
-0.01833
-0.02155
0.08725
-0.01812
-0.01675
-0.01807
-0.01682
0.08555
0.08563
-0.01674
-0.01728
0.08507
-0.01737
-0.01727
0.08609
-0.01719
-0.01658
0.08508
-0.01785
-0.01691
-0.01844
-0.01801
0.08433
0.08542
-0.01714
-0.01790
0.08576
-0.01718
-0.01831
-0.01679
-0.01780
0.08487
0.08473
-0.01716
-0.01757
-0.01673
-0.01838
0.08427
0.08537
-0.01626
-0.01836
-0.01655
-0.01844
0.08441
0.08575
-0.01905
-0.01710
0.08555
-0.01618
-0.01863
-0.01631
-0.01723
0.08546
0.08449
-0.01853
-0.01670
0.08613
-0.01738
-0.01760
0.08645
-0.01731
-0.01635
0.08479
-0.01985
-0.01766
-0.02173
-0.01445
0.08694
0.08771
-0.01727
-0.01708
0.08364
-0.01042
-0.01636
0.08118
-0.01997
-0.01813
0.09001
-0.01610
-0.01648
0.00851
-0.06562
0.08382
0.04894
-0.01804
-0.01645
0.08372
-0.01572
-0.01632
0.08517
0.02158
-0.07785
0.03188
0.02007
-0.07023
-0.01861
-0.00981
0.01925
0.07918
0.00511
-0.07765
-0.02425
-0.01069
0.06495
0.09023
-0.00821
-0.01551
0.07457
-0.01713
-0.01727
-0.01729
-0.01714
0.08541
0.08563
-0.01721
-0.01783
0.08598
-0.01789
-0.01693
0.08587
-0.01705
-0.01704
0.08518
-0.01715
-0.01695
-0.01710
-0.01712
0.08556
0.08593
-0.01727
-0.01688
-0.01717
-0.01719
0.08557
0.08604
-0.01706
-0.01705
0.08566
-0.01932
-0.01690
-0.02081
-0.01325
0.08594
0.08335
-0.01668
-0.01723
0.08495
-0.01358
-0.02075
0.08505
-0.01710
-0.01870
0.08637
-0.01739
-0.01786
-0.01697
-0.01714
0.08581
0.08525
-0.01770
-0.01437
0.08187
-0.01535
-0.02083
0.08785
-0.01662
-0.01860
0.08565
0.04853
0.04800
0.04709
0.04827
0.04752
0.04799
0.04865
0.04768
0.04616
0.08776
-0.01096
-0.00039
0.05262
0.04214
0.04589
0.04792
0.04852
0.04843
0.04867
0.04837
0.04828
0.04811
0.04892
0.04830
0.04774
0.04706
0.04763
0.04744
0.04809
0.04895
0.04705
0.04750
0.04970
0.04862
0.04729
0.04893
0.04733
0.05169
0.04608
0.04862
0.04783
0.04773
0.04892
0.04801
0.04834
0.04792
0.04902
0.04833
0.10572
-0.02405
-0.02739
0.05492
0.04931
0.04290
0.04087
0.04903
0.05268
0.04806
0.04884
0.04843
-0.02362
-0.00046
-0.16015
0.23707
0.05887
-0.04054
0.05192
-0.18669
0.08095
-0.07172
-0.15783
-0.07504
-0.20015
0.07574
-0.02988
-0.12929
-0.14323
-0.13468
0.23968
-0.05899
0.01922
0.06224
0.03241
-0.02322
0.31701
0.17036
0.10184
-0.04500
0.03837
0.09457
-0.20080
-0.05049
0.30607
-0.00068
0.22137
-0.09209
-0.03221
0.19437
-0.04908
-0.03793
-0.03773
-0.05876
-0.14127
0.08993
0.00375
0.00463
0.05707
0.03966
0.33311
-0.08845
-0.07589
-0.17867
-0.09795
0.16802
-0.14138
0.10183
-0.02065
-0.15144
-0.14393
0.00604
0.01042
-0.13876
-0.04993
-0.02634
-0.05621
0.03558
0.00797
0.07293
0.02073
-0.05433
-0.03474
0.00297
0.06487
-0.02359
0.21566
-0.07332
-0.06029
0.15214
0.18705
-0.11595
0.12110
-0.06669
0.00927
-0.07912
0.07954
-0.10927
-0.11219
0.03159
-0.07955
-0.12147
0.09229
-0.12885
-0.02573
-0.05973
0.12560
0.09533
0.17340
-0.00231
0.01953
0.04358
-0.13444
0.21369
0.00637
-0.00312
0.14604
0.23904
-0.04017
0.10909
-0.08394
0.07739
-0.06895
0.09896
0.14896
-0.03018
0.19391
-0.05550
-0.00649
-0.00250
0.12387
0.05951
0.10469
-0.09365
0.10712
-0.04806
0.02638
0.04906
-0.09932
0.09103
0.09868
0.05244
-0.09954
0.15071
0.05449
0.30830
-0.13706
0.22329
0.00817
0.21031
-0.10064
-0.15535
0.01868
-0.19157
0.14134
-0.02334
0.03268
-0.07313
-0.00209
0.11947
0.02787
-0.10501
0.11109
0.29212
0.08025
0.09341
0.20376
-0.00715
0.04718
-0.08196
0.04810
-0.00382
-0.06378
-0.06257
-0.04295
-0.14562
0.12986
0.05033
0.14957
0.01612
-0.00281
0.20059
0.39074
-0.10947
-0.17134
0.05917
0.11586
0.20766
0.03966
0.07098
-0.09880
-0.12989
0.08204
-0.06678
0.07045
0.20379
0.12099
-0.08092
0.10226
-0.00606
0.02005
-0.19351
0.02596
0.03446
-0.13346
-0.02701
0.14929
0.16909
0.01800
0.01220
-0.06759
0.03251
-0.11410
-0.07973
-0.17924
-0.03608
0.01480
-0.19562
-0.17800
0.06914
-0.05813
0.25321
-0.17867
-0.03447
-0.04647
0.09808
-0.08389
-0.05103
-0.00409
0.06951
-0.18142
0.03193
-0.19143
0.16900
-0.05269
-0.13861
0.03288
0.12307
-0.17162
-0.08802
-0.21140
-0.10439
-0.04152
0.11077
-0.02797
0.21242
-0.18496
-0.20907
0.00980
-0.06338
-0.14043
0.01723
-0.12628
-0.08932
0.10000
