# vtk DataFile Version 3.0
Point representing Sub_cellular elem model
ASCII

DATASET UNSTRUCTURED_GRID
POINTS 649 float
-0.00046 1.74638 1.05208 
0.00156 1.74104 -1.09663 
1.74382 1.07539 -0.01946 
1.74343 -1.07710 -0.01908 
0.00145 -1.74275 -1.09579 
0.00140 -1.74261 1.05448 
1.06979 0.00398 1.72957 
-1.08343 0.00142 1.72240 
1.07791 -0.00096 -1.76059 
-1.07494 -0.00103 -1.76079 
-1.74180 1.07634 -0.02089 
-1.74071 -1.07731 -0.01950 
0.00131 2.05445 -0.02218 
1.02893 1.66250 0.61217 
0.63507 1.03380 1.63602 
-0.63618 1.02806 1.64046 
-1.02744 1.66326 0.61193 
1.02856 1.66024 -0.65461 
0.63596 1.02534 -1.68003 
-0.63290 1.02535 -1.68024 
-1.02563 1.66056 -0.65521 
2.05417 -0.00099 -0.01865 
1.66174 0.63407 1.00727 
1.66247 0.63327 -1.04546 
1.02828 -1.66197 -0.65392 
1.02843 -1.66172 0.61379 
1.66111 -0.63342 1.00779 
1.66241 -0.63528 -1.04538 
0.00147 -2.05453 -0.02022 
0.63586 -1.02729 -1.67978 
-0.63292 -1.02733 -1.67982 
-1.02522 -1.66187 -0.65380 
0.63601 -1.02478 1.63908 
-0.63427 -1.02725 1.63961 
-1.02547 -1.66184 0.61406 
0.04730 -0.12645 2.16200 
-1.66332 0.63625 1.00474 
-1.66189 -0.63542 1.00571 
0.00149 -0.00098 -2.07182 
-1.65959 0.63332 -1.04615 
-1.65941 -0.63537 -1.04565 
-2.05233 -0.00077 -0.01998 
0.00071 1.97497 0.54810 
0.52479 1.77552 0.87131 
0.32302 1.45440 1.39311 
-0.32605 1.45351 1.39388 
-0.52452 1.77560 0.87141 
0.00151 1.97191 -0.59251 
0.52536 1.77119 -0.91532 
0.32520 1.44715 -1.43822 
-0.32209 1.44719 -1.43834 
-0.52229 1.77132 -0.91559 
1.45073 1.41840 0.30305 
1.45049 1.41782 -0.34351 
1.97333 0.57023 -0.01892 
1.77357 0.89409 0.50414 
1.77363 0.89387 -0.54276 
1.97314 -0.57213 -0.01874 
1.45014 -1.41956 -0.34297 
1.45011 -1.41929 0.30393 
1.77300 -0.89515 0.50463 
1.77348 -0.89588 -0.54257 
0.52517 -1.77290 -0.91452 
0.00147 -1.97311 -0.59118 
0.32507 -1.44907 -1.43773 
-0.32215 -1.44907 -1.43772 
-0.52222 -1.77285 -0.91445 
0.52530 -1.77282 0.87347 
0.00146 -1.97323 0.55053 
0.32545 -1.44886 1.39535 
-0.32260 -1.44921 1.39575 
-0.52240 -1.77285 0.87379 
0.89772 0.53004 1.75096 
1.41805 0.32459 1.43012 
1.41776 -0.32074 1.43053 
0.89784 -0.52075 1.75213 
0.54987 0.01062 1.97344 
-0.90458 0.52811 1.74885 
-0.90529 -0.52702 1.74793 
-0.56734 -0.00732 1.96807 
-1.42447 0.32576 1.42560 
-1.42377 -0.32400 1.42609 
0.89655 0.52253 -1.79074 
1.42012 0.32255 -1.46711 
1.42009 -0.32451 -1.46707 
0.89650 -0.52445 -1.79064 
0.57292 -0.00096 -1.99065 
-0.89354 0.52249 -1.79096 
-0.89354 -0.52452 -1.79075 
-0.56995 -0.00100 -1.99074 
-1.41716 0.32250 -1.46748 
-1.41711 -0.32460 -1.46731 
-1.44888 1.41965 0.30191 
-1.44786 1.41842 -0.34453 
-1.77278 0.89578 0.50233 
-1.77103 0.89423 -0.54386 
-1.97155 0.57095 -0.02044 
-1.44704 -1.41954 -0.34300 
-1.44727 -1.41954 0.30379 
-1.77128 -0.89591 0.50364 
-1.77052 -0.89596 -0.54289 
-1.97089 -0.57231 -0.01965 
0.55849 1.95331 0.28317 
-0.55636 1.95364 0.28293 
0.55852 1.95182 -0.32684 
-0.55566 1.95207 -0.32716 
0.90228 1.39877 1.18228 
1.05343 1.76286 -0.02111 
1.39721 1.20675 0.87925 
-0.00480 1.06028 1.73657 
1.20780 0.90333 1.37285 
0.30024 0.56658 1.93537 
-0.90229 1.39830 1.18350 
-0.30566 0.53872 1.94620 
-1.20928 0.90452 1.37218 
-1.05091 1.76349 -0.02176 
-1.39664 1.20850 0.87832 
0.90221 1.39387 -1.22561 
1.39677 1.20497 -0.91990 
0.00154 1.04983 -1.78181 
1.20766 0.89935 -1.41402 
0.30709 0.55545 -1.97041 
-0.89916 1.39398 -1.22601 
-0.30407 0.55544 -1.97048 
-1.20465 0.89938 -1.41445 
-1.39385 1.20518 -0.92063 
1.95231 0.30464 0.53788 
1.95296 0.30446 -0.57536 
1.95208 -0.30595 0.53805 
1.95292 -0.30651 -0.57532 
1.76244 0.00024 1.03271 
1.76407 -0.00100 -1.06981 
1.05296 -1.76381 -0.01995 
1.39661 -1.20696 -0.91962 
0.55826 -1.95287 -0.32552 
0.90205 -1.39581 -1.22522 
1.39641 -1.20585 0.88035 
0.55833 -1.95294 0.28505 
0.90225 -1.39481 1.18435 
1.20720 -0.89909 1.37418 
1.20756 -0.90133 -1.41386 
-0.55527 -1.95274 -0.32538 
-0.55533 -1.95279 0.28525 
0.00146 -1.05178 -1.78149 
0.30704 -0.55740 -1.97027 
-0.89907 -1.39581 -1.22519 
-0.30410 -0.55742 -1.97031 
-1.20457 -0.90139 -1.41395 
-1.04987 -1.76367 -0.01977 
-1.39354 -1.20696 -0.91966 
0.00147 -1.05422 1.73838 
0.30886 -0.54726 1.93772 
-0.89971 -1.39584 1.18486 
-0.30005 -0.54883 1.94234 
-1.20770 -0.90245 1.37303 
-1.39447 -1.20714 0.87999 
-1.76504 0.00022 1.02960 
-1.95214 0.30563 0.53579 
-1.95156 -0.30618 0.53625 
-1.76116 -0.00107 -1.07032 
-1.95038 0.30459 -0.57633 
-1.95019 -0.30657 -0.57599 
0.00018 1.87726 0.81122 
0.26133 1.77794 0.97230 
0.16067 1.61752 1.23265 
-0.16268 1.61737 1.23278 
-0.26173 1.77794 0.97232 
0.00154 1.87294 -0.85570 
0.26266 1.77295 -1.01668 
0.16291 1.61136 -1.27733 
-0.15979 1.61138 -1.27740 
-0.25956 1.77301 -1.01681 
1.61459 1.25670 0.14142 
1.61452 1.25651 -0.18101 
1.87510 0.83393 -0.01917 
1.77558 0.99541 0.24155 
1.77556 0.99529 -0.28032 
1.87481 -0.83575 -0.01889 
1.61415 -1.25825 -0.18055 
1.61408 -1.25809 0.14201 
1.77510 -0.99689 0.24199 
1.77531 -0.99720 -0.28004 
0.26252 -1.77465 -1.01586 
0.00146 -1.87445 -0.85465 
0.16279 -1.61320 -1.27668 
-0.15988 -1.61319 -1.27667 
-0.25960 -1.77463 -1.01582 
0.26255 -1.77457 0.97460 
0.00143 -1.87447 0.81372 
0.16282 -1.61296 1.23488 
-0.16002 -1.61303 1.23504 
-0.25971 -1.77459 0.97478 
0.99832 0.26448 1.75613 
1.25595 0.16263 1.59571 
1.25598 -0.15672 1.59589 
0.99891 -0.25575 1.75632 
0.82438 0.00605 1.86532 
-1.01151 0.26279 1.74974 
-1.01173 -0.26026 1.74960 
-0.84066 0.00044 1.85836 
-1.26636 0.16204 1.58942 
-1.26610 -0.15967 1.58963 
0.99792 0.26001 -1.79248 
1.25893 0.16032 -1.63115 
1.25891 -0.16225 -1.63113 
0.99790 -0.26193 -1.79243 
0.83659 -0.00096 -1.89215 
-0.99494 0.25995 -1.79269 
-0.99493 -0.26200 -1.79259 
-0.83362 -0.00102 -1.89229 
-1.25596 0.16026 -1.63142 
-1.25595 -0.16233 -1.63135 
-1.61268 1.25785 0.14005 
-1.61216 1.25729 -0.18226 
-1.77407 0.99672 0.23996 
-1.77321 0.99592 -0.28162 
-1.87322 0.83481 -0.02068 
-1.61117 -1.25834 -0.18076 
-1.61131 -1.25833 0.14170 
-1.77276 -0.99729 0.24134 
-1.77244 -0.99733 -0.28042 
-1.87232 -0.83599 -0.01956 
0.00108 2.03483 0.26746 
0.00144 2.03324 -0.31184 
0.28642 2.02896 0.12607 
-0.28402 2.02912 0.12593 
0.28652 2.02817 -0.17017 
-0.28375 2.02831 -0.17033 
0.78343 1.73677 0.75009 
1.25366 1.55523 0.46160 
0.80778 1.83013 0.44786 
0.98375 1.54609 0.90811 
1.04819 1.73746 0.30020 
1.22419 1.45305 0.76073 
0.48382 1.25917 1.52793 
0.77598 0.79093 1.70933 
0.78393 1.22715 1.42717 
0.32327 1.05812 1.70849 
0.93305 0.98748 1.51919 
0.46973 0.81456 1.80530 
-0.48675 1.25618 1.53038 
-0.77832 0.78708 1.71126 
-0.32888 1.05248 1.71199 
-0.78456 1.22485 1.42974 
-0.47171 0.80187 1.81234 
-0.93398 0.98608 1.52074 
-0.78246 1.73712 0.75015 
-1.25191 1.55635 0.46088 
-0.80597 1.83065 0.44760 
-0.98300 1.54652 0.90842 
-1.04610 1.73823 0.29967 
-1.22304 1.45422 0.76031 
0.78338 1.73341 -0.79346 
1.25327 1.55394 -0.50306 
0.80763 1.82812 -0.49097 
1.04796 1.73634 -0.34247 
0.98343 1.54262 -0.95090 
1.22367 1.45086 -0.80241 
0.48455 1.24993 -1.57398 
0.77472 0.78034 -1.75304 
0.78426 1.22056 -1.47111 
0.32338 1.04453 -1.75576 
0.93263 0.98041 -1.56265 
0.47177 0.80442 -1.84735 
-0.48146 1.24996 -1.57416 
-0.77169 0.78032 -1.75326 
-0.32031 1.04453 -1.75586 
-0.78120 1.22061 -1.47141 
-0.46873 0.80441 -1.84747 
-0.92959 0.98043 -1.56296 
-0.78036 1.73362 -0.79389 
-1.25046 1.55438 -0.50385 
-0.80472 1.82843 -0.49145 
-1.04518 1.73681 -0.34313 
-0.98041 1.54282 -0.95141 
-1.22073 1.45114 -0.80309 
2.03383 0.28909 -0.01874 
2.03373 -0.29105 -0.01865 
2.02824 0.14742 0.26617 
2.02861 0.14733 -0.30354 
2.02816 -0.14918 0.26623 
2.02858 -0.14938 -0.30351 
1.73541 0.77245 0.76207 
1.55483 0.48325 1.23220 
1.54521 0.93112 0.96128 
1.45305 0.78343 1.20136 
1.82909 0.46949 0.78673 
1.73679 0.32165 1.02711 
1.73571 0.77203 -0.80051 
1.55617 0.48187 -1.26998 
1.54523 0.92991 -1.00070 
1.45339 0.78151 -1.24073 
1.82987 0.46912 -0.82444 
1.73810 0.32076 -1.06455 
1.25295 -1.55567 -0.50244 
0.78314 -1.73512 -0.79271 
1.04759 -1.73777 -0.34156 
1.22344 -1.45276 -0.80195 
0.80733 -1.82956 -0.48998 
0.98322 -1.54450 -0.95038 
1.25302 -1.55538 0.46283 
0.78333 -1.73498 0.75204 
1.04768 -1.73769 0.30160 
1.22351 -1.45215 0.76212 
0.80746 -1.82955 0.44962 
0.98340 -1.54393 0.90993 
1.73478 -0.77283 0.76259 
1.55432 -0.48118 1.23270 
1.82866 -0.47002 0.78705 
1.73643 -0.32112 1.02738 
1.54444 -0.93033 0.96208 
1.45234 -0.78121 1.20219 
1.73562 -0.77406 -0.80039 
1.55613 -0.48386 -1.26993 
1.82983 -0.47115 -0.82439 
1.73807 -0.32277 -1.06452 
1.54512 -0.93192 -1.00054 
1.45332 -0.78350 -1.24061 
0.00147 -2.03397 -0.31020 
0.00147 -2.03407 0.26970 
0.28641 -2.02875 -0.16852 
0.28643 -2.02881 0.12802 
-0.28345 -2.02867 -0.16843 
-0.28347 -2.02871 0.12812 
0.48443 -1.25187 -1.57363 
0.77465 -0.78228 -1.75287 
0.78413 -1.22251 -1.47080 
0.93253 -0.98237 -1.56244 
0.32329 -1.04648 -1.75548 
0.47170 -0.80636 -1.84715 
-0.48150 -1.25189 -1.57363 
-0.77170 -0.78233 -1.75294 
-0.32036 -1.04650 -1.75549 
-0.78118 -1.22254 -1.47081 
-0.46876 -0.80639 -1.84719 
-0.92956 -0.98242 -1.56250 
-0.78013 -1.73504 -0.79260 
-1.24984 -1.55559 -0.50236 
-0.80430 -1.82943 -0.48984 
-0.98019 -1.54445 -0.95030 
-1.04450 -1.73764 -0.34140 
-1.22036 -1.45271 -0.80190 
0.48592 -1.25193 1.53066 
0.77616 -0.78164 1.71149 
0.78438 -1.22092 1.42965 
0.93292 -0.98088 1.52126 
0.32667 -1.04863 1.71169 
0.47122 -0.80203 1.80866 
-0.48325 -1.25306 1.53123 
-0.77829 -0.78705 1.70981 
-0.32417 -1.05013 1.71220 
-0.78218 -1.22262 1.43021 
-0.47003 -0.80471 1.80984 
-0.93264 -0.98436 1.52071 
-0.78038 -1.73504 0.75239 
-1.25009 -1.55559 0.46292 
-0.80443 -1.82944 0.44990 
-1.04462 -1.73763 0.30182 
-0.98061 -1.54442 0.91031 
-1.22084 -1.45276 0.76222 
0.30940 -0.09386 2.07994 
-0.19720 -0.03359 2.15117 
0.28699 0.13786 2.09247 
-0.06329 0.40403 2.05705 
0.23623 -0.34349 2.04670 
-0.19508 -0.33920 2.06623 
-1.55840 0.48522 1.22892 
-1.73560 0.77448 0.75998 
-1.45488 0.78570 1.19932 
-1.54563 0.93336 0.95955 
-1.73921 0.32299 1.02409 
-1.82990 0.47108 0.78430 
-1.55728 -0.48394 1.22967 
[...]
CELL_DATA 1939
SCALARS Strain double 
LOOKUP_TABLE default 
-0.08991
-0.08538
-0.08971
-0.08705
-0.08700
-0.08806
-0.08721
-0.08770
-0.08761
-0.08727
-0.08801
-0.08700
-0.08750
-0.08754
-0.08793
-0.08767
-0.08711
-0.08809
-0.08719
-0.08774
-0.08736
-0.08775
-0.08755
-0.08758
-0.08737
-0.08713
-0.08862
-0.08828
-0.08804
-0.08742
-0.09884
-0.07427
-0.07060
-0.10176
-0.06887
-0.09544
-0.09466
-0.07618
-0.07905
-0.07904
-0.08762
-0.08754
-0.08751
-0.08760
-0.08748
-0.08756
-0.08762
-0.08755
-0.08765
-0.08753
-0.08762
-0.08722
-0.08820
-0.08815
-0.08709
-0.08740
-0.08774
-0.08794
-0.08785
-0.08740
-0.03616
-0.03576
0.07027
0.07062
0.07035
0.07013
-0.03316
-0.03385
0.07073
0.06641
0.06716
0.07102
-0.03004
-0.03654
0.06637
0.06585
0.07369
0.07097
-0.02361
-0.04185
0.05065
0.07657
0.08985
0.07469
-0.03449
-0.03412
0.07106
0.06817
0.06798
0.07056
-0.03347
-0.03340
0.06950
0.06861
0.06893
0.06939
-0.03427
-0.03425
0.06940
0.06969
0.06971
0.06944
-0.03414
-0.03413
0.06965
0.06927
0.06933
0.06964
-0.03360
-0.03358
0.06965
0.06858
0.06883
0.06962
-0.03455
-0.03458
0.06977
0.06971
0.06964
0.06974
-0.03375
-0.03336
0.07034
0.06829
0.06931
0.06877
-0.03421
-0.03416
0.06937
0.06975
0.06975
0.06937
-0.03364
-0.03369
0.06907
0.06950
0.06955
0.06924
-0.03471
-0.03459
0.06864
0.07058
0.07042
0.06863
-0.03212
-0.03111
0.06812
0.06854
0.06996
0.06665
-0.03409
-0.03406
0.06968
0.06942
0.06945
0.06968
-0.03485
-0.03504
0.06990
0.06984
0.06974
0.06998
-0.03412
-0.03413
0.06950
0.06965
0.06963
0.06950
-0.03415
-0.03416
0.06958
0.06951
0.06952
0.06955
-0.03384
-0.03384
0.06948
0.06930
0.06915
0.06946
-0.02705
-0.03776
0.07244
0.07047
0.05790
0.07855
-0.02895
-0.04141
0.06014
0.07013
0.07827
0.07581
-0.03456
-0.03437
0.07015
0.06865
0.06843
0.06985
-0.08176
-0.13093
0.20690
-0.09445
0.02919
0.11696
-0.03733
-0.03638
0.06885
0.07154
0.07203
0.06873
-0.03749
-0.03629
0.06851
0.07099
0.07156
0.06879
-0.03404
-0.03405
0.06949
0.06942
0.06944
0.06950
-0.03441
-0.03449
0.06962
0.06960
0.06957
0.06959
-0.03412
-0.03417
0.06946
0.06947
0.06947
0.06943
-0.03371
-0.03378
0.06893
0.06898
0.06921
0.06914
-0.06813
-0.04732
0.08015
0.08152
0.03570
0.03470
-0.06320
-0.04297
0.07984
0.07630
0.03106
0.03397
-0.06853
-0.04843
0.07659
0.08426
0.03920
0.03248
-0.06394
-0.04122
0.08168
0.07604
0.02873
0.03336
-0.06539
-0.04512
0.08169
0.07679
0.03167
0.03621
-0.06644
-0.04617
0.08015
0.08022
0.03475
0.03474
-0.06513
-0.04438
0.07989
0.07933
0.03336
0.03405
-0.06576
-0.04510
0.07956
0.08010
0.03445
0.03402
-0.06563
-0.04497
0.08008
0.07945
0.03391
0.03438
-0.06521
-0.04448
0.08001
0.07925
0.03332
0.03420
-0.06611
-0.04524
0.07878
0.08107
0.03535
0.03289
-0.06489
-0.04420
0.07901
0.07961
0.03393
0.03359
-0.06574
-0.04526
0.07948
0.08016
0.03449
0.03401
-0.06553
-0.04476
0.08059
0.07920
0.03329
0.03412
-0.06587
-0.04512
0.07965
0.08018
0.03454
0.03400
-0.06589
-0.04536
0.07949
0.08027
0.03478
0.03410
-0.06507
-0.04442
0.07946
0.07962
0.03392
0.03388
-0.06633
-0.04571
0.07949
0.08066
0.03499
0.03402
-0.06487
-0.04368
0.07898
0.08021
0.03381
0.03269
-0.06570
-0.04497
0.08016
0.07964
0.03399
0.03446
-0.06532
-0.04459
0.07994
0.07961
0.03378
0.03419
-0.06596
-0.04549
0.08005
0.07999
0.03445
0.03449
-0.06559
-0.04494
0.07972
0.07999
0.03434
0.03411
-0.06562
-0.04497
0.07997
0.07974
0.03412
0.03427
-0.06537
-0.04468
0.07988
0.07964
0.03383
0.03413
-0.06524
-0.04490
0.08001
0.07808
0.03276
0.03468
-0.06672
-0.04600
0.07993
0.08021
0.03455
0.03428
-0.06608
-0.04442
0.07762
0.08130
0.03471
0.03124
-0.06626
-0.04560
0.08132
0.07741
0.03119
0.03488
-0.06559
-0.04513
0.08022
0.07798
0.03279
0.03452
-0.05703
-0.03422
0.07526
0.07702
0.03098
0.02669
-0.06137
-0.04319
0.07658
0.07681
0.03569
0.03536
-0.05851
-0.04046
0.07688
0.07400
0.03290
0.03529
-0.05826
-0.03476
0.07249
0.08274
0.03547
0.01856
-0.02034
-0.06047
0.13211
0.15647
0.02617
0.02630
-0.05026
-0.03536
0.06959
0.07737
0.03067
0.02711
-0.04641
-0.03094
0.05864
0.07308
0.02888
0.02095
-0.02185
0.15971
0.13094
0.02728
0.02705
-0.06896
-0.04902
0.07476
0.08475
0.04016
0.03166
-0.06915
-0.04935
0.07308
0.08436
0.03977
0.03149
-0.06569
-0.04506
0.07994
0.07978
0.03410
0.03426
-0.06559
-0.04495
0.07994
0.07970
0.03403
0.03427
-0.06553
-0.04488
0.07973
0.07990
0.03421
0.03409
-0.06563
-0.04496
0.07990
0.07980
0.03416
0.03423
-0.06552
-0.04486
0.07978
0.07977
0.03406
0.03411
-0.06560
-0.04495
0.07967
0.07987
0.03420
0.03397
-0.06565
-0.04499
0.07983
0.07978
0.03415
0.03416
-0.06557
-0.04489
0.07970
0.07982
0.03413
0.03406
-0.06575
-0.04516
0.07987
0.07979
0.03415
0.03420
-0.06557
-0.04492
0.07974
0.07977
0.03409
0.03402
-0.06562
-0.04492
0.07856
0.08072
0.03497
0.03271
-0.06514
-0.04443
0.07881
0.08000
0.03425
0.03340
-0.06665
-0.04650
0.08083
0.07930
0.03388
0.03522
-0.06615
-0.04541
0.08005
0.07984
0.03433
0.03437
-0.06509
-0.04447
0.07921
0.07957
0.03354
0.03361
-0.06538
-0.04469
0.07937
0.07974
0.03403
0.03387
-0.06582
-0.04519
0.07918
0.08021
0.03452
0.03326
-0.06633
-0.04623
0.08032
0.07937
0.03379
0.03480
-0.06581
-0.04507
0.07978
0.07977
0.03418
0.03415
-0.06538
-0.04467
0.07936
0.07961
0.03363
0.03381
0.07285
0.07295
0.02167
0.01790
0.01523
0.01804
0.07335
0.07351
0.02088
0.01829
0.01543
0.01752
0.07254
0.07223
0.02120
0.01931
0.01570
0.01814
0.07244
0.07227
0.02122
0.01932
0.01578
0.01816
0.06813
0.06777
0.02171
0.02174
0.01825
0.01850
0.07025
0.07072
0.02154
0.02041
0.01756
0.01825
0.07399
0.07381
0.01879
0.01961
0.01691
0.01504
0.09321
0.07937
0.02199
0.01085
-0.00369
0.02764
0.07062
0.07031
0.01714
0.02347
0.02057
0.01442
0.08675
-0.00146
0.05968
0.02598
0.04878
0.02605
0.07364
0.07147
0.01754
0.02308
0.01685
0.01743
0.12461
-0.00857
0.07171
0.02630
0.10005
0.02639
0.07333
0.07231
0.01552
0.02359
0.01827
0.01401
0.07057
0.07081
0.02133
0.02057
0.01741
0.01821
0.07295
0.07326
0.01869
0.02046
0.01746
0.01498
0.07166
0.07182
0.02032
0.02080
0.01766
0.01713
0.07187
0.07187
0.02010
0.02088
0.01769
0.01706
0.07218
0.07217
0.02038
0.02027
0.01712
0.01722
0.07224
0.07225
0.02039
0.02033
0.01713
0.01715
0.07197
0.07198
0.02056
0.02035
0.01714
0.01737
0.07167
0.07153
0.02070
0.02048
0.01730
0.01753
0.07187
0.07190
0.02053
0.02043
0.01724
0.01736
0.07214
0.07214
0.02022
0.02048
0.01730
0.01696
0.07212
0.07213
0.01989
0.02070
0.01753
0.01685
0.07226
0.07215
0.02082
0.01991
0.01644
0.01757
0.07224
0.07225
0.02041
0.02027
0.01706
0.01728
0.07194
0.07147
0.02135
0.01970
0.01637
0.01846
0.07221
0.07219
0.02051
0.02026
0.01705
0.01737
0.07067
0.07058
0.02192
0.01996
0.01730
0.01870
0.07188
0.07190
0.02058
0.02051
0.01732
0.01739
0.07139
0.07124
0.02029
0.02117
0.01789
0.01722
0.07199
0.07197
0.02031
0.02076
0.01757
0.01721
0.07216
0.07229
0.01991
0.02086
0.01778
0.01652
0.07188
0.07196
0.02047
0.02068
0.01754
0.01728
0.07343
0.07327
0.02052
0.01862
0.01545
0.01757
0.07262
0.07246
0.01929
0.02075
0.01740
0.01631
0.07135
0.07226
0.02231
0.01821
0.01607
0.01825
0.06845
0.06840
0.02267
0.02139
0.01785
0.01985
0.07218
0.07217
0.02042
0.02047
0.01727
0.01726
0.07214
0.07204
0.02086
0.01998
0.01661
0.01773
0.07255
0.07261
0.02051
0.01939
0.01642
0.01722
0.07212
0.07211
0.02043
0.02045
0.01727
0.01724
0.07200
0.07197
0.02054
0.02043
0.01726
0.01735
0.07198
0.07191
0.02057
0.02042
0.01723
0.01738
0.07202
0.07202
0.02049
0.02039
0.01723
0.01733
0.07203
0.07200
0.02046
0.02040
0.01723
0.01725
0.07150
0.07133
0.02032
0.02087
0.01774
0.01714
0.07197
0.07197
0.02030
0.02053
0.01737
0.01720
0.08347
0.08471
0.01669
0.01698
0.01263
0.01245
0.09070
-0.19579
0.04046
0.02623
0.07213
0.02581
0.07076
0.07069
0.01874
0.02142
0.01641
0.01734
0.11073
-0.11964
0.09156
0.02623
0.06473
0.02602
0.07160
0.07102
0.01225
0.02394
0.01878
0.01259
0.07245
0.07280
0.01902
0.02015
0.01701
0.01471
0.07520
0.07503
0.01764
0.01785
0.01519
0.01503
0.07109
0.07121
0.02164
0.01946
0.01578
0.01850
0.07116
0.07126
0.02139
0.01952
0.01575
0.01842
0.07203
0.07200
0.02049
0.02029
0.01705
0.01727
0.07203
0.07190
0.02063
0.02005
0.01697
0.01739
0.07188
0.07179
0.02048
0.02027
0.01720
0.01734
0.07072
0.07283
-0.00378
-0.00530
0.06888
-0.00854
-0.00715
0.07355
-0.00241
-0.00590
0.06776
-0.00953
-0.00533
-0.00843
-0.00410
0.07118
0.07129
-0.00527
-0.00534
0.07070
-0.00642
-0.00586
0.07140
-0.00539
-0.00587
0.07062
-0.00598
-0.00546
-0.00645
-0.00573
0.07050
0.07177
-0.00484
-0.00620
0.07086
-0.00611
-0.00623
0.07048
0.07144
-0.00546
-0.00605
-0.00645
-0.00565
-0.00525
-0.00585
0.07051
0.07153
-0.00512
-0.00591
0.07093
0.07077
-0.00616
-0.00596
0.07148
-0.00508
-0.00551
-0.00592
-0.00670
-0.00594
-0.00534
0.07120
0.07091
-0.00604
-0.00572
0.07117
-0.00549
-0.00549
0.07126
-0.00553
-0.00579
0.07093
-0.00577
-0.00557
-0.00602
-0.00575
0.07093
0.06968
-0.00703
-0.00592
0.07127
-0.00536
-0.00567
0.07186
-0.00518
-0.00712
0.06952
-0.00718
-0.00546
-0.00705
-0.00578
0.06284
0.09594
-0.00551
-0.02371
0.06025
-0.00285
-0.00320
0.05841
-0.00660
-0.00320
0.10553
-0.00247
-0.03186
-0.02999
-0.03896
0.10021
0.05408
-0.03479
-0.01523
0.09643
0.05204
-0.03981
-0.01717
-0.03579
-0.02747
0.06811
0.00501
-0.01064
0.00503
-0.01112
0.07115
0.07103
-0.00576
-0.00566
0.07097
-0.00584
-0.00566
0.07112
-0.00571
-0.00580
0.07104
-0.00572
-0.00567
-0.00582
-0.00579
0.07094
0.07110
-0.00572
-0.00589
0.07107
0.07100
-0.00575
-0.00573
-0.00576
-0.00583
0.07102
-0.00576
-0.00571
-0.00581
-0.00587
0.07009
0.07182
-0.00514
-0.00687
0.07132
-0.00568
-0.00648
0.07054
-0.00595
-0.00500
0.07093
-0.00551
-0.00539
-0.00638
-0.00634
0.07058
0.07102
-0.00590
-0.00605
0.07139
-0.00547
-0.00640
0.07068
-0.00605
-0.00539
0.07096
-0.00566
-0.00568
-0.00620
-0.00608
0.05747
0.05693
0.07791
0.07867
0.05702
0.05713
0.07781
0.07778
-0.01646
-0.01827
0.05045
-0.01640
-0.01815
0.05010
-0.01742
0.05048
-0.01740
0.05066
0.05331
0.05751
0.07789
0.07321
0.05761
0.05401
0.07554
0.07886
-0.01405
-0.01475
0.04736
-0.01405
-0.01471
0.05114
-0.01595
0.05075
-0.01631
0.04647
0.05641
0.04356
0.06958
0.08698
0.04703
0.06840
0.07410
0.05962
-0.01431
-0.01415
0.05139
-0.00318
-0.02399
0.02273
-0.01066
0.04357
-0.02762
0.03682
0.04672
0.04887
0.07761
0.07300
0.07297
0.05057
0.06073
0.07856
0.01399
-0.00938
0.02254
-0.01727
-0.01138
0.05094
-0.03865
0.00565
-0.01317
0.04704
0.05428
0.05822
0.07907
0.07495
0.05735
0.05475
0.07580
0.07822
-0.01463
-0.01590
0.04784
-0.01468
-0.01716
0.05026
-0.01593
0.05085
-0.01598
0.04799
0.05544
0.05621
0.07728
0.07669
0.05621
0.05571
0.07634
0.07708
-0.01380
-0.01529
0.04838
-0.01512
0.04974
-0.01408
-0.01553
0.04949
-0.01545
0.04927
0.05655
0.05621
0.07707
0.07747
0.05623
0.05644
0.07740
0.07719
-0.01476
-0.01616
0.04991
-0.01476
-0.01617
0.04957
-0.01614
0.04951
-0.01613
0.04976
0.05609
0.05648
0.07743
0.07695
0.05639
0.05610
0.07708
0.07733
-0.01465
-0.01605
0.04947
-0.01462
-0.01601
0.04981
-0.01603
0.04974
-0.01600
0.04935
0.05541
0.05638
0.07741
0.07661
0.05643
0.05558
0.07627
0.07738
-0.01391
-0.01536
0.04843
-0.01531
0.04980
-0.01424
-0.01565
0.04970
-0.01563
0.04910
0.05658
0.05635
0.07721
0.07753
0.05680
0.05638
0.07717
0.07762
-0.01527
-0.01654
0.04984
-0.01493
-0.01628
0.04971
-0.01665
0.05026
-0.01632
0.04977
0.05531
0.05601
0.07804
0.07674
0.05732
0.05663
0.07544
0.07574
-0.01540
-0.01667
0.04850
-0.01680
0.05185
-0.01422
-0.01559
0.04872
-0.01579
0.05032
0.05662
0.05615
0.07709
0.07754
0.05617
0.05648
0.07742
0.07712
-0.01473
-0.01621
0.04995
-0.01606
0.04949
-0.01464
-0.01609
0.04947
-0.01600
0.04981
0.05625
0.05602
0.07680
0.07715
0.05589
0.05633
0.07734
0.07700
-0.01410
-0.01542
0.04965
-0.01425
-0.01561
0.04948
-0.01557
0.04902
-0.01569
0.04963
0.05719
0.05568
0.07662
0.07836
0.05503
0.05751
0.07785
0.07556
-0.01482
-0.01635
0.05037
-0.01553
-0.01723
0.04897
-0.01593
0.04860
-0.01702
0.05078
0.05571
0.05423
0.07611
0.07763
0.05480
0.05696
0.07562
0.07334
-0.01268
-0.01458
0.04855
-0.01366
0.04905
-0.01303
-0.01498
0.04702
-0.01380
0.05127
0.05619
0.05653
0.07749
0.07715
0.05641
0.05625
0.07716
0.07736
-0.01455
-0.01598
0.04949
-0.01592
0.04974
-0.01461
-0.01606
0.04986
-0.01597
0.04960
0.05664
0.05672
0.07757
0.07747
0.05671
0.05650
0.07750
0.07771
-0.01548
-0.01667
0.05008
-0.01705
0.04993
-0.01542
-0.01662
0.05012
-0.01699
0.04973
0.05647
0.05628
0.07720
0.07739
0.05631
0.05641
0.07736
0.07724
-0.01462
-0.01600
0.04982
-0.01602
0.04962
-0.01462
-0.01601
0.04961
-0.01603
0.04972
0.05630
0.05638
0.07735
0.07721
0.05633
0.05631
0.07726
0.07724
-0.01466
-0.01604
0.04963
-0.01466
-0.01604
0.04969
-0.01606
0.04969
-0.01606
0.04962
0.05596
0.05628
0.07726
0.07704
0.05623
0.05606
0.07685
0.07718
-0.01424
-0.01565
0.04913
-0.01444
-0.01582
0.04959
-0.01565
0.04957
-0.01584
0.04951
0.05114
0.04706
0.07288
0.08031
0.05229
0.06472
0.07157
0.06217
-0.01470
-0.01255
0.04856
-0.01177
0.04823
0.00214
-0.01637
0.02609
-0.02735
0.02345
0.04590
0.05245
0.08125
0.07197
0.07757
0.04207
0.04536
0.07584
0.00174
-0.01770
0.02635
-0.01735
-0.01405
0.05105
-0.03918
0.02549
-0.01133
0.04286
0.05510
0.05702
0.07782
0.07546
0.05675
0.05519
0.07646
0.07767
-0.01487
-0.01613
0.04873
-0.01621
0.05019
-0.01485
-0.01684
0.04960
-0.01629
0.04780
-0.22599
-0.12931
0.04706
-0.05834
-0.05329
0.05311
-0.02573
-0.07544
0.03935
-0.19070
-0.13236
0.19648
0.05689
0.23435
0.05972
0.05494
0.07545
0.08108
0.05597
0.05791
0.07860
0.07668
-0.01777
-0.02083
0.05137
-0.01813
0.04979
-0.01705
-0.01958
0.04809
-0.01763
0.05158
0.05917
0.05498
0.07464
0.08056
0.05582
0.05748
0.07806
0.07673
-0.01790
-0.02153
0.05118
-0.01788
0.04920
-0.01716
-0.01985
0.04822
-0.01755
0.05137
0.05622
0.05628
0.07721
0.07719
0.05629
0.05623
0.07714
0.07724
-0.01454
-0.01592
0.04952
-0.01594
0.04960
-0.01455
-0.01594
0.04962
-0.01596
0.04958
0.05634
0.05637
0.07733
0.07725
0.05645
0.05643
0.07740
0.07732
-0.01497
-0.01627
0.04969
-0.01646
0.04980
-0.01492
-0.01624
0.04966
-0.01640
0.04971
0.05625
0.05619
0.07717
0.07720
0.05629
0.05628
0.07721
0.07719
-0.01465
-0.01601
0.04958
-0.01610
0.04965
-0.01464
-0.01600
0.04948
-0.01611
0.04962
0.05574
0.05585
0.07664
0.07696
0.05575
0.05599
0.07675
0.07695
-0.01393
-0.01527
0.04874
-0.01541
0.04874
-0.01443
-0.01575
0.04932
-0.01587
0.04948
-0.01982
-0.01545
-0.01964
-0.01687
0.08620
0.08723
-0.01417
-0.01866
0.08018
-0.02242
-0.01513
0.09084
-0.01470
-0.01777
0.08284
-0.01821
-0.01659
-0.01822
-0.01665
0.08586
0.08591
-0.01679
-0.01735
0.08526
-0.01739
-0.01727
0.08579
-0.01720
-0.01688
0.08514
-0.01747
-0.01627
-0.01787
-0.01774
0.08431
0.08710
-0.01665
-0.01753
0.08542
-0.01749
-0.01685
-0.01739
-0.01737
0.08538
0.08587
-0.01769
-0.01624
-0.01746
-0.01723
0.08513
0.08587
-0.01655
-0.01764
-0.01679
-0.01733
0.08502
0.08549
-0.01841
-0.01662
0.08659
-0.01685
-0.01766
-0.01694
-0.01719
0.08579
0.08546
-0.01763
-0.01688
0.08569
-0.01721
-0.01723
0.08571
-0.01723
-0.01702
0.08549
-0.01690
-0.01838
-0.01712
-0.01669
0.08594
0.08310
-0.01834
-0.01720
0.08610
-0.01830
-0.01893
0.08935
-0.01722
-0.01729
0.08267
-0.01272
-0.01767
0.01972
-0.06972
0.08280
0.03332
-0.01743
-0.01477
0.08382
-0.01444
-0.01390
0.08088
0.02417
-0.09875
0.03275
0.03208
-0.09772
-0.01097
-0.02433
0.02107
0.08549
0.03966
-0.09156
-0.00934
-0.02568
-0.00606
0.08291
-0.02213
-0.02229
0.09036
-0.01732
-0.01723
-0.01730
-0.01711
0.08575
0.08554
-0.01717
-0.01711
0.08547
-0.01716
-0.01723
0.08570
-0.01723
-0.01712
0.08555
-0.01722
-0.01715
-0.01720
-0.01740
0.08545
0.08567
-0.01727
-0.01717
-0.01726
-0.01718
0.08559
0.08554
-0.01737
-0.01717
0.08556
-0.01714
-0.01655
-0.01726
-0.01871
0.08434
0.08664
-0.01686
-0.01778
0.08574
-0.01825
-0.01645
0.08490
-0.01769
-0.01688
0.08552
-0.01688
-0.01738
-0.01706
-0.01738
0.08501
0.08553
-0.01748
-0.01827
0.08609
-0.01808
-0.01673
0.08498
-0.01740
-0.01710
0.08544
0.04933
0.04881
0.04665
0.04953
0.04866
0.04686
0.04402
0.05080
0.04773
0.10805
-0.01927
-0.04550
0.04655
0.04900
0.04915
0.04816
0.04823
0.04867
0.04849
0.04833
0.04823
0.04798
0.04855
0.04843
0.04909
0.04833
0.04721
0.04853
0.04847
0.04821
0.04755
0.04853
0.04894
0.04836
0.04831
0.04858
0.05020
0.04757
0.04578
0.04837
0.04891
0.04768
0.04845
0.04834
0.04837
0.04832
0.04841
0.04833
0.10034
-0.03104
-0.01535
0.04496
0.04809
0.04898
0.05039
0.04709
0.04715
0.04840
0.04834
0.04815
0.03325
-0.27402
-0.03726
-0.25380
-0.10503
0.01136
-0.03623
-0.27668
-0.21121
-0.25220
-0.04971
0.05952
-0.16401
-0.11776
-0.18412
-0.16442
-0.21565
-0.22796
0.37379
-0.23179
-0.08641
-0.28166
-0.20633
0.10000
