# vtk DataFile Version 3.0
Point representing Sub_cellular elem model
ASCII

DATASET UNSTRUCTURED_GRID
POINTS 664 float
-0.00122 1.73635 0.98882 
0.00308 1.74076 -1.16181 
1.74194 1.07566 -0.08104 
1.74203 -1.07603 -0.07911 
0.00382 -1.74312 -1.15890 
-0.00291 -1.73336 0.99200 
1.07167 0.00134 1.67670 
-1.06942 0.00088 1.67621 
1.08144 -0.00135 -1.82217 
-1.07178 -0.00184 -1.82772 
-1.74023 1.07616 -0.08979 
-1.74033 -1.07591 -0.08814 
0.00068 2.05134 -0.08582 
1.02469 1.65783 0.55024 
0.63227 1.02103 1.58177 
-0.63208 1.01888 1.57721 
-1.02532 1.65827 0.54592 
1.02859 1.66016 -0.71737 
0.63896 1.02508 -1.74353 
-0.62998 1.02489 -1.74679 
-1.02433 1.66011 -0.72249 
2.05320 -0.00028 -0.07965 
1.65592 0.63200 0.94459 
1.66440 0.63383 -1.10692 
1.02937 -1.66142 -0.71458 
1.02348 -1.65693 0.55352 
1.65484 -0.63284 0.94600 
1.66477 -0.63520 -1.10582 
0.00089 -2.05144 -0.08265 
0.63950 -1.02790 -1.74159 
-0.62955 -1.02828 -1.74484 
-1.02415 -1.66184 -0.71986 
0.62834 -1.01848 1.58768 
-0.63763 -1.01810 1.57976 
-1.02574 -1.65586 0.54828 
0.13342 0.40406 2.38707 
-1.65728 0.63314 0.93654 
-1.65732 -0.63008 0.93826 
0.00561 -0.00191 -2.13548 
-1.65831 0.63349 -1.11551 
-1.65827 -0.63585 -1.11446 
-2.05157 0.00015 -0.09022 
-0.00043 1.96861 0.48514 
0.52179 1.76751 0.80882 
0.32188 1.44260 1.33086 
-0.32427 1.44174 1.32946 
-0.52351 1.76750 0.80692 
0.00192 1.97083 -0.65710 
0.52627 1.77095 -0.97922 
0.32752 1.44703 -1.50274 
-0.31974 1.44696 -1.50439 
-0.52092 1.77088 -0.98184 
1.44718 1.41694 0.24126 
1.44956 1.41796 -0.40546 
1.97204 0.57093 -0.08026 
1.76956 0.89338 0.44219 
1.77396 0.89468 -0.60422 
1.97207 -0.57143 -0.07918 
1.45004 -1.41865 -0.40301 
1.44674 -1.41691 0.24389 
1.76893 -0.89379 0.44401 
1.77438 -0.89550 -0.60267 
0.52711 -1.77285 -0.97628 
0.00256 -1.97241 -0.65399 
0.32824 -1.44968 -1.50016 
-0.31913 -1.44988 -1.50181 
-0.52040 -1.77313 -0.97897 
0.52012 -1.76540 0.81225 
-0.00109 -1.96673 0.48815 
0.31948 -1.44010 1.33516 
-0.32627 -1.43877 1.33301 
-0.52450 -1.76443 0.80951 
0.89531 0.52234 1.70296 
1.41340 0.32212 1.36910 
1.41301 -0.32216 1.36940 
0.89486 -0.52358 1.70209 
0.55887 -0.00709 1.94951 
-0.89593 0.52159 1.69431 
-0.89757 -0.51646 1.70266 
-0.55604 0.00384 1.96041 
-1.41452 0.32189 1.36212 
-1.41449 -0.31891 1.36480 
0.89994 0.52214 -1.85315 
1.42303 0.32260 -1.52855 
1.42321 -0.32465 -1.52796 
0.90022 -0.52499 -1.85214 
0.57686 -0.00168 -2.05306 
-0.89033 0.52179 -1.85776 
-0.89011 -0.52547 -1.85673 
-0.56605 -0.00197 -2.05598 
-1.41492 0.32210 -1.53591 
-1.41483 -0.32529 -1.53531 
-1.44669 1.41759 0.23436 
-1.44654 1.41812 -0.41271 
-1.76976 0.89447 0.43353 
-1.77010 0.89470 -0.61329 
-1.97037 0.57146 -0.09027 
-1.44662 -1.41894 -0.41048 
-1.44681 -1.41627 0.23656 
-1.76975 -0.89257 0.43500 
-1.77018 -0.89591 -0.61190 
-1.97043 -0.57117 -0.08942 
0.55610 1.94921 0.22072 
-0.55588 1.94936 0.21834 
0.55771 1.95035 -0.38999 
-0.55499 1.95036 -0.39264 
0.89729 1.38991 1.12098 
1.05122 1.76126 -0.08330 
1.39143 1.20272 0.81733 
0.00034 1.04970 1.67910 
1.20139 0.89698 1.31302 
0.30818 0.54912 1.90802 
-0.89885 1.38945 1.11710 
-0.29654 0.54841 1.90895 
-1.20269 0.89641 1.30602 
-1.04961 1.76148 -0.08825 
-1.39251 1.20352 0.81090 
0.90403 1.39402 -1.28885 
1.39794 1.20549 -0.98209 
0.00473 1.04935 -1.84674 
1.21019 0.89950 -1.47635 
0.31082 0.55475 -2.03399 
-0.89722 1.39384 -1.29344 
-0.30034 0.55462 -2.03555 
-1.20245 0.89918 -1.48258 
-1.39245 1.20532 -0.98922 
1.94866 0.30467 0.47582 
1.95387 0.30524 -0.63634 
1.94839 -0.30547 0.47647 
1.95402 -0.30601 -0.63581 
1.75697 -0.00051 0.96972 
1.76635 -0.00066 -1.13063 
1.05138 -1.76144 -0.08024 
1.39861 -1.20689 -0.98002 
0.55829 -1.95122 -0.38681 
0.90480 -1.39609 -1.28642 
1.38970 -1.20272 0.82001 
0.55581 -1.94849 0.22399 
0.89448 -1.38856 1.12490 
1.19942 -0.89719 1.31521 
1.21070 -0.90162 -1.47473 
-0.55470 -1.95136 -0.38966 
-0.55604 -1.94826 0.22116 
0.00524 -1.05263 -1.84471 
0.31111 -0.55821 -2.03286 
-0.89684 -1.39660 -1.29105 
-0.30007 -0.55839 -2.03442 
-1.20220 -0.90226 -1.48096 
-1.04965 -1.76141 -0.08561 
-1.39236 -1.20751 -0.98725 
-0.00117 -1.04862 1.68350 
0.28406 -0.53993 1.91976 
-0.90046 -1.38604 1.11965 
-0.31779 -0.55785 1.89870 
-1.20399 -0.89236 1.31031 
-1.39285 -1.20027 0.81325 
-1.75880 0.00131 0.96120 
-1.94912 0.30598 0.46603 
-1.94909 -0.30414 0.46652 
-1.76002 -0.00119 -1.13980 
-1.94984 0.30510 -0.64643 
-1.94988 -0.30631 -0.64596 
-0.00088 1.86900 0.74825 
0.25944 1.76869 0.90947 
0.15966 1.60635 1.16949 
-0.16237 1.60611 1.16889 
-0.26161 1.76861 0.90855 
0.00252 1.87238 -0.92066 
0.26392 1.77268 -1.08122 
0.16484 1.61121 -1.34224 
-0.15782 1.61118 -1.34305 
-0.25813 1.77264 -1.08253 
1.61184 1.25629 0.07971 
1.61312 1.25675 -0.24272 
1.87353 0.83447 -0.08063 
1.77267 0.99528 0.17988 
1.77485 0.99596 -0.34182 
1.87358 -0.83490 -0.07907 
1.61339 -1.25724 -0.24052 
1.61171 -1.25650 0.08198 
1.77242 -0.99557 0.18177 
1.77515 -0.99654 -0.34006 
0.26472 -1.77483 -1.07827 
0.00324 -1.87442 -0.91763 
0.16559 -1.61373 -1.33946 
-0.15714 -1.61383 -1.34028 
-0.25747 -1.77498 -1.07961 
0.25773 -1.76607 0.91280 
-0.00208 -1.86637 0.75124 
0.15754 -1.60348 1.17314 
-0.16422 -1.60293 1.17221 
-0.26296 -1.76548 0.91140 
0.99730 0.26045 1.70729 
1.25359 0.16060 1.53806 
1.25446 -0.15882 1.53733 
1.00109 -0.25869 1.70435 
0.82978 0.00061 1.82310 
-0.99984 0.25869 1.70059 
-0.99576 -0.25610 1.70807 
-0.82665 0.00091 1.82674 
-1.25431 0.15922 1.53262 
-1.25310 -0.15743 1.53557 
1.00141 0.25961 -1.85443 
1.26218 0.16013 -1.69263 
1.26227 -0.16251 -1.69233 
1.00155 -0.26240 -1.85392 
0.84034 -0.00153 -1.95410 
-0.99170 0.25918 -1.85957 
-0.99159 -0.26290 -1.85905 
-0.83002 -0.00193 -1.95838 
-1.25323 0.15961 -1.69914 
-1.25317 -0.16309 -1.69883 
-1.61075 1.25689 0.07176 
-1.61074 1.25707 -0.25081 
-1.77197 0.99606 0.17109 
-1.77208 0.99621 -0.35081 
-1.87184 0.83500 -0.09007 
-1.61086 -1.25736 -0.24885 
-1.61084 -1.25615 0.07373 
-1.77202 -0.99500 0.17263 
-1.77219 -0.99673 -0.34929 
-1.87192 -0.83473 -0.08881 
0.00009 2.03023 0.20426 
0.00130 2.03131 -0.37596 
0.28494 2.02530 0.06313 
-0.28418 2.02536 0.06189 
0.28565 2.02585 -0.23353 
-0.28365 2.02587 -0.23485 
0.77959 1.73034 0.68792 
1.24955 1.55230 0.39977 
0.80447 1.82568 0.38571 
0.97889 1.53937 0.84624 
1.04489 1.73452 0.23821 
1.21907 1.44846 0.69891 
0.48237 1.24699 1.46843 
0.77204 0.77925 1.66003 
0.77948 1.21631 1.36795 
0.32543 1.04528 1.65357 
0.92740 0.97777 1.46250 
0.47090 0.79917 1.76071 
-0.48377 1.24529 1.46572 
-0.77239 0.77928 1.65135 
-0.32484 1.04372 1.65116 
-0.78072 1.21483 1.36376 
-0.46663 0.79782 1.75694 
-0.92853 0.97669 1.45565 
-0.78077 1.73054 0.68489 
-1.24963 1.55291 0.39410 
-0.80472 1.82597 0.38234 
-0.98020 1.53959 0.84226 
-1.04451 1.73491 0.23353 
-1.21996 1.44910 0.69354 
0.78386 1.73323 -0.85677 
1.25282 1.55397 -0.56536 
0.80714 1.82743 -0.55394 
1.04690 1.73569 -0.40494 
0.98443 1.54277 -1.01392 
1.22429 1.45117 -0.86491 
0.48724 1.24976 -1.63803 
0.77796 0.78000 -1.81597 
0.78674 1.22054 -1.53451 
0.32653 1.04413 -1.81994 
0.93541 0.98034 -1.62553 
0.47518 0.80392 -1.91090 
-0.47879 1.24963 -1.64050 
-0.76859 0.77974 -1.81996 
-0.31719 1.04404 -1.82159 
-0.77877 1.22034 -1.53852 
-0.46536 0.80375 -1.91332 
-0.92699 0.98007 -1.63033 
-0.77904 1.73315 -0.86067 
-1.24916 1.55400 -0.57160 
-0.80365 1.82742 -0.55788 
-1.04397 1.73576 -0.41004 
-0.97887 1.54265 -1.01888 
-1.21934 1.45107 -0.87110 
2.03274 0.28983 -0.07994 
2.03275 -0.29038 -0.07939 
2.02595 0.14794 0.20470 
2.02870 0.14810 -0.36445 
2.02589 -0.14859 0.20500 
2.02875 -0.14871 -0.36419 
1.73033 0.77104 0.69972 
1.54902 0.48079 1.16975 
1.53921 0.92803 0.89906 
1.44667 0.77954 1.13955 
1.82420 0.46868 0.72414 
1.73126 0.32037 0.96410 
1.73693 0.77278 -0.86197 
1.55865 0.48218 -1.33143 
1.54683 0.93049 -1.06253 
1.45564 0.78187 -1.30258 
1.83137 0.46982 -0.88561 
1.74024 0.32123 -1.12567 
1.25347 -1.55492 -0.56271 
0.78470 -1.73482 -0.85388 
1.04746 -1.73645 -0.40200 
1.22505 -1.45253 -0.86245 
0.80786 -1.82853 -0.55090 
0.98526 -1.54446 -1.01130 
1.24873 -1.55192 0.40274 
0.77808 -1.72883 0.69136 
1.04445 -1.73411 0.24136 
1.21745 -1.44792 0.70198 
0.80375 -1.82475 0.38902 
0.97681 -1.53820 0.84975 
1.72938 -0.77168 0.70139 
1.54812 -0.48151 1.17072 
1.82358 -0.46956 0.72519 
1.73068 -0.32133 0.96484 
1.53770 -0.92854 0.90115 
1.44513 -0.78016 1.14130 
1.73736 -0.77386 -0.86065 
1.55893 -0.48388 -1.33058 
1.83164 -0.47086 -0.88480 
1.74043 -0.32257 -1.12511 
1.54737 -0.93189 -1.06092 
1.45610 -0.78361 -1.30120 
0.00178 -2.03225 -0.37280 
-0.00008 -2.02933 0.20735 
0.28606 -2.02639 -0.23031 
0.28497 -2.02496 0.06636 
-0.28336 -2.02643 -0.23177 
-0.28416 -2.02490 0.06491 
0.48788 -1.25250 -1.63573 
0.77837 -0.78286 -1.81448 
0.78740 -1.22298 -1.53229 
0.93595 -0.98282 -1.62372 
0.32706 -1.04722 -1.81794 
0.47560 -0.80708 -1.90932 
-0.47828 -1.25280 -1.63819 
-0.76826 -0.78330 -1.81844 
-0.31671 -1.04742 -1.81957 
-0.77834 -1.22345 -1.53631 
-0.46499 -0.80736 -1.91172 
-0.92663 -0.98336 -1.62850 
-0.77868 -1.73520 -0.85790 
-1.24914 -1.55532 -0.56916 
-0.80341 -1.82881 -0.55504 
-0.97858 -1.54496 -1.01635 
-1.04390 -1.73670 -0.40737 
-1.21921 -1.45307 -0.86875 
0.47961 -1.24458 1.47363 
0.76979 -0.78053 1.66175 
0.77624 -1.21462 1.37260 
0.92495 -0.97760 1.46544 
0.32271 -1.04255 1.65970 
0.46275 -0.79493 1.76883 
-0.48672 -1.24337 1.46888 
-0.77661 -0.77437 1.65851 
-0.32903 -1.04424 1.65337 
-0.78375 -1.21215 1.36667 
-0.47728 -0.80061 1.75634 
-0.93137 -0.97269 1.46077 
-0.78145 -1.72772 0.68731 
-1.24985 -1.55100 0.39644 
-0.80504 -1.82418 0.38491 
-1.04469 -1.73365 0.23605 
-0.98103 -1.53636 0.84459 
-1.22039 -1.44615 0.69588 
0.36595 -0.27925 2.14581 
0.19036 -0.36692 2.43577 
0.35764 0.27183 2.24538 
-0.00424 0.09297 2.73581 
-0.13534 -0.45887 2.04967 
-0.31947 -0.34698 2.25188 
-1.55044 0.48140 1.16209 
-1.73126 0.77230 0.69133 
-1.44807 0.77997 1.13216 
-1.54044 0.92899 0.89166 
-1.73279 0.32178 0.95569 
-1.82529 0.47011 0.71518 
-1.55057 -0.47821 1.16426 
[...]
CELL_DATA 1984
SCALARS Strain double 
LOOKUP_TABLE default 
-0.08791
-0.08901
-0.08819
-0.08863
-0.08904
-0.08786
-0.08743
-0.08774
-0.08758
-0.08754
-0.08835
-0.08756
-0.08783
-0.08782
-0.08813
-0.08806
-0.08811
-0.08772
-0.08802
-0.08769
-0.08729
-0.08803
-0.08768
-0.08761
-0.08728
-0.08911
-0.08680
-0.08820
-0.08766
-0.08981
-0.09927
-0.07465
-0.06986
-0.10074
-0.06129
-0.10975
-0.10618
-0.05161
-0.06171
-0.06932
-0.08748
-0.08760
-0.08754
-0.08749
-0.08754
-0.08738
-0.08736
-0.08762
-0.08759
-0.08763
-0.08755
-0.08818
-0.08787
-0.08752
-0.08788
-0.08767
-0.08802
-0.08743
-0.08785
-0.08785
-0.03440
-0.03439
0.06900
0.06879
0.06903
0.06916
-0.03611
-0.03581
0.06936
0.06939
0.06891
0.06922
-0.02423
-0.03710
0.07851
0.04936
0.06654
0.08744
-0.02815
-0.04586
0.05243
0.08117
0.09386
0.07293
-0.03582
-0.03509
0.06833
0.07038
0.06981
0.06776
-0.03396
-0.03397
0.06930
0.06889
0.06899
0.06935
-0.03418
-0.03413
0.06931
0.06973
0.06971
0.06940
-0.03398
-0.03394
0.06964
0.06923
0.06932
0.06958
-0.03434
-0.03447
0.06960
0.06930
0.06921
0.06970
-0.03441
-0.03448
0.06846
0.06931
0.06949
0.06858
-0.03299
-0.03210
0.06720
0.06844
0.06860
0.06642
-0.03451
-0.03442
0.06965
0.06954
0.06944
0.06976
-0.03416
-0.03402
0.06895
0.06961
0.06956
0.06898
-0.03490
-0.03552
0.06983
0.06735
0.06811
0.07083
-0.03392
-0.03327
0.07011
0.06625
0.06642
0.06976
-0.03429
-0.03425
0.06915
0.06984
0.06978
0.06936
-0.03459
-0.03436
0.06940
0.06867
0.06893
0.06931
-0.03411
-0.03407
0.06934
0.06970
0.06976
0.06943
-0.03396
-0.03391
0.06975
0.06921
0.06933
0.06970
-0.03381
-0.03387
0.06951
0.06886
0.06887
0.06967
-0.02495
-0.04863
0.08403
0.07375
0.04554
0.10217
-0.02742
-0.03250
0.05686
0.07282
0.07169
0.06297
-0.03676
-0.03617
0.06931
0.07017
0.07108
0.06889
-0.05447
-0.00807
-0.01602
0.00901
0.05002
-0.03029
-0.03223
0.06861
0.06653
0.06560
0.06967
-0.02900
-0.03094
0.06943
0.06543
0.06437
0.07039
-0.03406
-0.03407
0.06952
0.06952
0.06953
0.06952
-0.03431
-0.03429
0.06921
0.06995
0.07005
0.06904
-0.03451
-0.03458
0.06945
0.07005
0.07013
0.06933
-0.03419
-0.03418
0.06956
0.06899
0.06879
0.06934
-0.06597
-0.04527
0.07865
0.07838
0.03306
0.03313
-0.06708
-0.04661
0.07882
0.07875
0.03316
0.03375
-0.06584
-0.04382
0.07875
0.07833
0.03186
0.03234
-0.06673
-0.04582
0.07804
0.08003
0.03450
0.03166
-0.06731
-0.04671
0.07828
0.07968
0.03390
0.03281
-0.06593
-0.04525
0.07965
0.07982
0.03407
0.03388
-0.06546
-0.04480
0.07969
0.07943
0.03369
0.03402
-0.06575
-0.04506
0.07955
0.08006
0.03439
0.03402
-0.06557
-0.04485
0.08001
0.07945
0.03388
0.03426
-0.06564
-0.04507
0.07990
0.07944
0.03383
0.03427
-0.06673
-0.04637
0.07927
0.07957
0.03407
0.03396
-0.06552
-0.04481
0.07915
0.07947
0.03365
0.03354
-0.06589
-0.04522
0.07885
0.07958
0.03396
0.03332
-0.06565
-0.04452
0.07912
0.07862
0.03253
0.03295
-0.06615
-0.04543
0.07967
0.07965
0.03415
0.03422
-0.06613
-0.04540
0.07996
0.07897
0.03325
0.03406
-0.06601
-0.04516
0.07942
0.07978
0.03406
0.03374
-0.06588
-0.04542
0.07962
0.07834
0.03307
0.03426
-0.06599
-0.04512
0.08005
0.07802
0.03226
0.03411
-0.06578
-0.04514
0.07915
0.07984
0.03427
0.03380
-0.06535
-0.04475
0.07991
0.07932
0.03355
0.03420
-0.06619
-0.04554
0.07995
0.07986
0.03411
0.03431
-0.06568
-0.04498
0.07950
0.08022
0.03449
0.03402
-0.06557
-0.04484
0.08023
0.07939
0.03390
0.03450
-0.06528
-0.04462
0.07993
0.07923
0.03349
0.03428
-0.06709
-0.04642
0.07783
0.08064
0.03446
0.03255
-0.06512
-0.04485
0.07785
0.07901
0.03341
0.03244
-0.06584
-0.04326
0.08038
0.07731
0.03054
0.03198
-0.06645
-0.04706
0.07784
0.08038
0.03390
0.03217
-0.06812
-0.04753
0.07907
0.08054
0.03461
0.03357
-0.06681
-0.04324
0.08115
0.09600
0.04221
0.03087
-0.05993
-0.04173
0.08105
0.07426
0.03104
0.03603
-0.06083
-0.04280
0.07631
0.07908
0.03501
0.03265
-0.05244
-0.04180
0.08228
0.06564
0.03450
0.04410
-0.00712
0.28507
0.14870
0.14346
0.02626
0.02577
-0.06123
-0.04056
0.08177
0.08104
0.03476
0.04008
-0.07596
-0.04293
0.10427
0.08007
0.02372
0.04635
0.00209
0.15963
0.13818
0.02669
0.02664
-0.05392
-0.03814
0.07890
0.07119
0.03030
0.03570
-0.05343
-0.03713
0.08279
0.06771
0.02674
0.03933
-0.06553
-0.04491
0.07989
0.07975
0.03402
0.03424
-0.06571
-0.04515
0.07984
0.08001
0.03429
0.03412
-0.06562
-0.04502
0.08003
0.07975
0.03399
0.03434
-0.06552
-0.04487
0.07984
0.07981
0.03408
0.03422
-0.06555
-0.04488
0.07980
0.07983
0.03415
0.03414
-0.06539
-0.04474
0.07977
0.07974
0.03414
0.03399
-0.06537
-0.04472
0.07976
0.07980
0.03418
0.03397
-0.06561
-0.04492
0.07985
0.07986
0.03422
0.03422
-0.06571
-0.04511
0.07964
0.08025
0.03452
0.03388
-0.06578
-0.04524
0.07973
0.08027
0.03458
0.03402
-0.06579
-0.04547
0.07984
0.07853
0.03307
0.03443
-0.06619
-0.04542
0.07970
0.07997
0.03420
0.03398
-0.06563
-0.04428
0.07833
0.08002
0.03378
0.03253
-0.06563
-0.04506
0.08005
0.07908
0.03365
0.03447
-0.06588
-0.04511
0.08008
0.07902
0.03354
0.03417
-0.06559
-0.04480
0.07947
0.07980
0.03386
0.03361
-0.06646
-0.04636
0.08007
0.07905
0.03391
0.03536
-0.06484
-0.04319
0.07839
0.07959
0.03333
0.03231
-0.06604
-0.04543
0.08003
0.07957
0.03408
0.03455
-0.06585
-0.04508
0.07955
0.07958
0.03412
0.03366
0.07144
0.07156
0.01961
0.01963
0.01661
0.01651
0.07107
0.07091
0.01965
0.02027
0.01713
0.01667
0.07169
0.07176
0.02033
0.01995
0.01671
0.01716
0.07183
0.07198
0.02006
0.02022
0.01711
0.01674
0.07316
0.07586
0.02150
0.01515
0.01420
0.01615
0.07131
0.07134
0.02040
0.01983
0.01654
0.01720
0.07130
0.07057
0.02091
0.01841
0.01481
0.01883
0.08273
0.08378
0.01674
0.02059
0.01670
0.01079
0.07039
0.07091
0.02550
0.01779
0.01525
0.02039
0.10464
0.11655
0.04207
0.02612
0.08600
0.02596
0.07729
0.07427
0.01537
0.01981
0.01366
0.01512
0.12214
0.10759
0.08736
0.02620
0.07758
0.02608
0.07066
0.07069
0.02549
0.01712
0.01430
0.02071
0.07209
0.07194
0.01956
0.02033
0.01689
0.01659
0.06993
0.06952
0.02135
0.01945
0.01559
0.01922
0.07160
0.07171
0.02036
0.02069
0.01749
0.01724
0.07194
0.07204
0.01996
0.02057
0.01745
0.01688
0.07223
0.07220
0.02042
0.02028
0.01717
0.01729
0.07219
0.07213
0.02025
0.02055
0.01730
0.01698
0.07197
0.07201
0.02056
0.02044
0.01722
0.01738
0.07168
0.07167
0.02049
0.02063
0.01751
0.01721
0.07191
0.07198
0.02051
0.02053
0.01733
0.01737
0.07199
0.07187
0.02023
0.02079
0.01757
0.01701
0.07230
0.07238
0.02023
0.02013
0.01709
0.01701
0.07090
0.07094
0.02047
0.01905
0.01576
0.01759
0.07179
0.07185
0.01975
0.02064
0.01752
0.01670
0.07229
0.07256
0.01951
0.01864
0.01562
0.01638
0.07125
0.07145
0.02027
0.02065
0.01752
0.01708
0.06891
0.06884
0.02060
0.02125
0.01787
0.01667
0.07234
0.07236
0.02037
0.02017
0.01685
0.01712
0.07156
0.07183
0.02025
0.01970
0.01679
0.01691
0.07217
0.07222
0.02009
0.02033
0.01733
0.01698
0.07203
0.07199
0.01985
0.02029
0.01696
0.01676
0.07160
0.07173
0.02053
0.02073
0.01745
0.01739
0.06927
0.06896
0.02109
0.02015
0.01662
0.01858
0.07077
0.07094
0.02040
0.01989
0.01681
0.01694
0.07521
0.07883
0.01962
0.01529
0.01600
0.01308
0.07230
0.07258
0.01798
0.02240
0.01918
0.01381
0.07202
0.07213
0.02064
0.02033
0.01706
0.01743
0.07166
0.07185
0.02060
0.01981
0.01676
0.01740
0.07176
0.07176
0.01903
0.02055
0.01702
0.01610
0.07229
0.07229
0.02042
0.02031
0.01720
0.01730
0.07199
0.07202
0.02056
0.02045
0.01725
0.01740
0.07158
0.07145
0.02077
0.02066
0.01757
0.01753
0.07193
0.07199
0.02054
0.02053
0.01734
0.01739
0.07214
0.07205
0.02016
0.02087
0.01764
0.01687
0.07158
0.07201
0.01986
0.02044
0.01737
0.01636
0.07232
0.07245
0.01990
0.02052
0.01745
0.01678
0.07840
0.09320
0.01283
0.01979
0.01898
-0.00015
0.14884
0.48234
0.11843
0.02552
0.08313
0.02506
0.07519
0.07452
0.01491
0.02082
0.01630
0.01304
0.07394
0.25380
0.01967
0.02546
0.07441
0.02532
0.06765
0.07031
0.02933
0.01550
0.01474
0.02373
0.07055
0.06927
0.02299
0.01871
0.01430
0.02157
0.06762
0.06721
0.02211
0.02357
0.01885
0.01852
0.07248
0.07234
0.01882
0.02023
0.01775
0.01568
0.07252
0.07194
0.01865
0.02077
0.01804
0.01562
0.07263
0.07266
0.02007
0.02027
0.01706
0.01678
0.07138
0.07128
0.02089
0.02032
0.01706
0.01780
0.07176
0.07175
0.02096
0.01987
0.01670
0.01782
0.06976
0.06943
-0.00714
-0.00711
0.07030
-0.00645
-0.00658
0.06914
-0.00756
-0.00679
0.07084
-0.00579
-0.00790
-0.00608
-0.00714
0.07095
0.07113
-0.00569
-0.00586
0.07078
-0.00612
-0.00590
0.07124
-0.00554
-0.00585
0.07070
-0.00600
-0.00566
-0.00608
-0.00569
0.07049
0.07084
-0.00577
-0.00599
0.07063
-0.00643
-0.00635
0.07013
0.07086
-0.00595
-0.00648
-0.00702
-0.00635
-0.00575
-0.00587
0.07113
0.07032
-0.00644
-0.00583
0.07075
0.07087
-0.00591
-0.00604
0.07000
-0.00654
-0.00598
-0.00688
-0.00588
-0.00590
-0.00621
0.07117
0.07067
-0.00630
-0.00577
0.07119
-0.00558
-0.00551
0.07148
-0.00539
-0.00587
0.07060
-0.00598
-0.00537
-0.00634
-0.00568
0.06895
0.07197
-0.00516
-0.00723
0.07011
-0.00690
-0.00795
0.06829
-0.00813
-0.00615
0.07169
-0.00548
-0.00860
-0.00513
-0.00634
0.07220
0.09608
0.00144
-0.00589
0.06052
-0.00824
-0.00086
0.06066
-0.00619
-0.00226
0.10456
-0.00747
-0.02961
-0.03421
-0.03299
0.11288
0.06482
-0.02201
0.00125
0.09479
0.07946
0.00332
0.00959
-0.04633
-0.03971
0.05134
-0.00821
-0.00314
-0.01617
0.00518
0.07108
0.07105
-0.00583
-0.00570
0.07119
-0.00564
-0.00575
0.07103
-0.00584
-0.00562
0.07110
-0.00576
-0.00572
-0.00571
-0.00573
0.07111
0.07094
-0.00580
-0.00583
0.07110
0.07098
-0.00578
-0.00586
-0.00562
-0.00562
0.07138
-0.00546
-0.00592
-0.00542
-0.00584
0.07096
0.07012
-0.00659
-0.00576
0.07109
-0.00572
-0.00582
0.07128
-0.00586
-0.00663
0.07032
-0.00634
-0.00570
-0.00624
-0.00567
0.07097
0.07090
-0.00618
-0.00617
0.07047
-0.00592
-0.00510
0.07076
-0.00647
-0.00662
0.07087
-0.00582
-0.00566
-0.00567
-0.00613
0.05555
0.05566
0.07640
0.07618
0.05604
0.05585
0.07695
0.07710
-0.01506
-0.01653
0.04908
-0.01481
-0.01622
0.04919
-0.01641
0.04931
-0.01623
0.04899
0.05534
0.05645
0.07672
0.07621
0.05615
0.05616
0.07670
0.07695
-0.01585
-0.01718
0.04880
-0.01704
-0.01918
0.04906
-0.01708
0.04946
-0.01803
0.05037
0.04629
0.04777
0.07482
0.07707
0.06326
0.05628
0.07595
0.08447
-0.01669
-0.01258
0.04625
0.01363
-0.01302
0.02075
-0.01777
0.05425
-0.02148
0.01397
0.05134
0.04728
0.07762
0.07678
0.07574
0.05849
0.06794
0.07750
0.00571
-0.01717
0.02830
-0.02070
-0.01489
0.04825
-0.04281
0.01616
-0.01791
0.05304
0.05628
0.05513
0.07592
0.07732
0.05504
0.05682
0.07741
0.07570
-0.01550
-0.01711
0.04959
-0.01629
-0.01901
0.04720
-0.01646
0.04867
-0.01709
0.05087
0.05576
0.05618
0.07710
0.07678
0.05597
0.05573
0.07657
0.07701
-0.01457
-0.01598
0.04901
-0.01596
0.04922
-0.01442
-0.01580
0.04956
-0.01584
0.04917
0.05655
0.05618
0.07700
0.07749
0.05614
0.05646
0.07738
0.07715
-0.01463
-0.01608
0.04985
-0.01468
-0.01612
0.04958
-0.01597
0.04938
-0.01602
0.04979
0.05606
0.05641
0.07742
0.07691
0.05637
0.05608
0.07711
0.07724
-0.01452
-0.01596
0.04948
-0.01440
-0.01584
0.04965
-0.01588
0.04975
-0.01575
0.04935
0.05604
0.05647
0.07734
0.07689
0.05638
0.05607
0.07709
0.07744
-0.01505
-0.01632
0.04946
-0.01660
0.04954
-0.01480
-0.01608
0.04987
-0.01632
0.04934
0.05617
0.05540
0.07623
0.07701
0.05528
0.05617
0.07733
0.07633
-0.01550
-0.01680
0.04975
-0.01457
-0.01596
0.04887
-0.01701
0.04854
-0.01601
0.04942
0.05467
0.05425
0.07582
0.07599
0.05326
0.05638
0.07735
0.07306
-0.01262
-0.01505
0.04766
-0.01287
0.04738
-0.01390
-0.01566
0.04738
-0.01509
0.04895
0.05633
0.05650
0.07729
0.07712
0.05647
0.05626
0.07728
0.07749
-0.01495
-0.01644
0.04975
-0.01625
0.04972
-0.01503
-0.01654
0.04993
-0.01630
0.04951
0.05630
0.05582
0.07675
0.07730
0.05570
0.05639
0.07733
0.07671
-0.01476
-0.01634
0.04953
-0.01451
-0.01605
0.04922
-0.01601
0.04907
-0.01579
0.04976
0.05495
0.05689
0.07726
0.07538
0.05656
0.05472
0.07558
0.07812
-0.01538
-0.01647
0.04870
-0.01573
-0.01664
0.05111
-0.01689
0.04948
-0.01859
0.04656
0.05365
0.05643
0.07766
0.07468
0.05705
0.05338
0.07367
0.07739
-0.01492
-0.01658
0.04709
-0.01572
0.05032
-0.01369
-0.01555
0.04953
-0.01474
0.04634
0.05658
0.05607
0.07674
0.07744
0.05606
0.05656
0.07753
0.07714
-0.01478
-0.01620
0.04996
-0.01612
0.04922
-0.01482
-0.01627
0.04959
-0.01614
0.04985
0.05594
0.05632
0.07730
0.07705
0.05592
0.05519
0.07583
0.07674
-0.01502
-0.01657
0.04907
-0.01616
0.04938
-0.01500
-0.01658
0.04961
-0.01610
0.04880
0.05658
0.05620
0.07701
0.07758
0.05619
0.05645
0.07734
0.07720
-0.01453
-0.01597
0.04983
-0.01590
0.04943
-0.01463
-0.01607
0.04960
-0.01599
0.04982
0.05608
0.05659
0.07759
0.07688
0.05644
0.05606
0.07712
0.07733
-0.01451
-0.01595
0.04951
-0.01436
-0.01581
0.04986
-0.01587
0.04981
-0.01570
0.04927
0.05562
0.05647
0.07732
0.07660
0.05618
0.05568
0.07671
0.07734
-0.01440
-0.01576
0.04903
-0.01435
-0.01569
0.04991
-0.01587
0.04927
-0.01583
0.04905
0.04514
0.05016
0.07735
0.07424
0.05747
0.08065
0.08027
0.06498
-0.02120
-0.01400
0.04913
-0.01805
0.05287
0.01159
-0.01116
0.02526
-0.05857
0.00149
0.04227
0.04807
0.08123
0.07378
0.04914
0.06233
0.08143
0.07156
0.00666
-0.02209
0.00823
-0.01518
-0.01394
0.04414
-0.00869
0.02799
-0.01781
0.05533
0.05675
0.05612
0.07678
0.07797
0.05604
0.05788
0.07779
0.07646
-0.01629
-0.01788
0.04964
-0.01724
0.04957
-0.01768
-0.01987
0.04871
-0.01818
0.05253
-0.18461
0.01326
0.15834
-0.19013
0.03919
-0.03824
0.06483
0.03619
-0.06923
-0.18117
0.10037
-0.14785
0.05261
0.05686
0.07641
0.07150
0.05562
0.05371
0.07507
0.07737
-0.01187
-0.01151
0.04652
-0.01465
0.04822
-0.01284
-0.01248
0.05042
-0.01541
0.04686
0.05055
0.05873
0.07838
0.06944
0.05563
0.05308
0.07465
0.07734
-0.00946
-0.00845
0.04569
-0.01283
0.04768
-0.01257
-0.01313
0.05111
-0.01478
0.04652
0.05630
0.05630
0.07724
0.07725
0.05634
0.05634
0.07726
0.07727
-0.01455
-0.01593
0.04960
-0.01596
0.04966
-0.01454
-0.01593
0.04961
-0.01595
0.04966
0.05674
0.05595
0.07702
0.07775
0.05591
0.05679
0.07762
0.07663
-0.01484
-0.01622
0.05000
-0.01620
0.04941
-0.01481
-0.01620
0.04913
-0.01617
0.05021
0.05682
0.05615
0.07717
0.07781
0.05624
0.05688
0.07769
0.07703
-0.01505
-0.01635
0.05009
-0.01651
0.04969
-0.01510
-0.01640
0.04941
-0.01654
0.05026
0.05569
0.05623
0.07742
0.07645
0.05626
0.05570
0.07687
0.07701
-0.01531
-0.01674
0.04943
-0.01676
0.04988
-0.01429
-0.01574
0.04942
-0.01570
0.04896
-0.01783
-0.01839
-0.01748
-0.01846
0.08474
0.08429
-0.01936
-0.01715
0.08440
-0.01642
-0.01842
0.08657
-0.01837
-0.01965
0.08577
-0.01760
-0.01717
-0.01749
-0.01740
0.08539
0.08557
-0.01699
-0.01732
0.08523
-0.01738
-0.01721
0.08581
-0.01709
-0.01719
0.08521
-0.01809
-0.01716
-0.01886
-0.01700
0.08491
0.08485
-0.01710
-0.01773
0.08547
-0.01793
-0.01720
-0.01721
-0.01784
0.08446
0.08536
-0.01831
-0.01787
-0.01729
-0.01737
0.08594
0.08484
-0.01775
-0.01748
-0.01744
-0.01749
0.08526
0.08570
-0.01755
-0.01716
0.08326
-0.01711
-0.01781
-0.01690
-0.01720
0.08567
0.08519
-0.01784
-0.01695
0.08554
-0.01733
-0.01721
0.08594
-0.01708
-0.01685
0.08506
-0.01818
-0.01701
-0.01959
-0.01781
0.08394
0.08686
-0.01692
-0.01925
0.08504
-0.01594
-0.01990
0.08679
-0.01807
-0.02017
0.08560
-0.01923
-0.01281
-0.00106
-0.04850
0.08596
0.07395
-0.01650
-0.01575
0.08195
-0.01609
-0.01711
0.08656
0.03449
-0.08594
-0.00848
0.02750
-0.08165
-0.01948
-0.01099
0.01789
0.08526
-0.00948
-0.03547
-0.02276
-0.00684
0.08386
0.08468
-0.01112
-0.01371
0.07870
-0.01712
-0.01736
-0.01718
-0.01713
0.08568
0.08554
-0.01739
-0.01725
0.08587
-0.01727
-0.01707
0.08560
-0.01717
-0.01714
0.08557
-0.01706
-0.01720
-0.01692
-0.01736
0.08554
0.08548
-0.01706
-0.01718
-0.01688
-0.01743
0.08555
0.08559
-0.01735
-0.01748
0.08614
-0.01736
-0.01794
-0.01774
-0.01674
0.08557
0.08373
-0.01765
-0.01734
0.08587
-0.01732
-0.01803
0.08594
-0.01727
-0.01704
0.08482
-0.01718
-0.01799
-0.01715
-0.01771
0.08543
0.08587
-0.01854
-0.01552
0.08393
-0.01665
-0.01807
0.08557
-0.01771
-0.01698
0.08530
0.04808
0.04791
0.04766
0.04756
0.04811
0.04829
0.05069
0.04701
0.04599
0.10909
-0.04029
-0.02800
0.05072
0.04640
0.04571
0.04802
0.04837
0.04855
0.04852
0.04837
0.04829
0.04806
0.04828
0.04868
0.04734
0.04880
0.04600
0.04818
0.04778
0.04871
0.04795
0.04820
0.04763
0.04854
0.04806
0.04847
0.04493
0.05095
0.04801
0.04778
0.04833
0.04801
0.04856
0.04838
0.04831
0.04789
0.04852
0.04875
0.11795
-0.03987
-0.05642
0.05275
0.04463
0.04624
0.04549
0.04895
0.04887
0.04900
0.04775
0.04812
-0.11861
0.03349
-0.00305
-0.01174
0.04664
-0.01895
0.04814
-0.07793
0.10130
0.08346
-0.10707
-0.20730
0.24714
0.01664
-0.14699
-0.00059
0.06878
0.01577
-0.04440
0.22663
-0.13551
-0.08755
-0.09420
-0.11606
0.16247
-0.12379
0.17736
0.22607
-0.16942
0.04716
-0.05361
0.37419
-0.05477
-0.13325
-0.00339
-0.04919
-0.10681
-0.15648
-0.06437
0.09183
-0.08392
-0.08443
-0.06987
-0.16719
0.20767
-0.15010
0.01293
-0.17782
0.00215
-0.15558
0.10393
-0.06753
0.10651
-0.03956
0.04998
-0.00755
0.07901
-0.16049
-0.09736
0.04642
-0.15669
-0.15335
-0.08469
-0.17515
0.02862
-0.15509
-0.05393
-0.11441
-0.11382
-0.10694
-0.11985
0.10000
