# vtk DataFile Version 3.0
Point representing Sub_cellular elem model
ASCII

DATASET UNSTRUCTURED_GRID
POINTS 785 float
0.01357 1.70998 0.44287 
0.00965 1.72388 -1.71444 
1.75085 1.05687 -0.64548 
1.75426 -1.09187 -0.64958 
0.01263 -1.75857 -1.72150 
0.01658 -1.75547 0.43152 
1.08163 -0.02139 1.11276 
-1.04893 -0.02135 1.12647 
1.08550 -0.01531 -2.38832 
-1.06757 -0.01643 -2.38038 
-1.72521 1.05515 -0.63247 
-1.72551 -1.09511 -0.63983 
0.01237 2.02877 -0.63549 
1.03508 1.63389 -0.00532 
0.64345 0.99893 1.03887 
-0.61366 0.99652 1.04827 
-1.00830 1.63283 0.00318 
1.03659 1.64236 -1.27631 
0.64268 1.01085 -2.30364 
-0.62596 1.01002 -2.29861 
-1.01439 1.64111 -1.26816 
2.06311 -0.01672 -0.64948 
1.66435 0.61187 0.38074 
1.67151 0.61863 -1.67415 
1.04019 -1.67710 -1.28250 
1.04014 -1.67522 -0.01348 
1.66779 -0.64996 0.37709 
1.67281 -0.65027 -1.67613 
0.01590 -2.06955 -0.64551 
0.64451 -1.04224 -2.30703 
-0.62442 -1.04294 -2.30285 
-1.01279 -1.67905 -1.27688 
0.64811 -1.04558 1.02559 
-0.60879 -1.03880 1.03206 
-1.00712 -1.67679 -0.00842 
0.01512 0.64586 1.94271 
-1.63539 0.60961 0.39422 
-1.63493 -0.65233 0.38704 
0.00783 -0.01548 -2.69506 
-1.64986 0.61669 -1.66172 
-1.64953 -0.65228 -1.66523 
-2.03630 -0.01943 -0.63588 
0.01325 1.94287 -0.06333 
0.53433 1.74157 0.25835 
0.33523 1.41764 0.78735 
-0.30761 1.41678 0.79062 
-0.50732 1.74093 0.26277 
0.01102 1.95156 -1.20814 
0.53346 1.75371 -1.53491 
0.33228 1.43177 -2.05899 
-0.31474 1.43130 -2.05639 
-0.51302 1.75300 -1.53069 
1.45641 1.39571 -0.31925 
1.45816 1.39958 -0.96738 
1.98119 0.55338 -0.64781 
1.77831 0.87350 -0.12210 
1.78234 0.87802 -1.17037 
1.98311 -0.58726 -0.64997 
1.46185 -1.43447 -0.97266 
1.46112 -1.43348 -0.32533 
1.78202 -0.91002 -0.12604 
1.78460 -0.91100 -1.17345 
0.53681 -1.78834 -1.54173 
0.01438 -1.98892 -1.21685 
0.33486 -1.46444 -2.06426 
-0.31239 -1.46488 -2.06227 
-0.51045 -1.78929 -1.53880 
0.53849 -1.78583 0.24854 
0.01666 -1.98679 -0.07409 
0.33821 -1.46324 0.77605 
-0.30494 -1.46164 0.77773 
-0.50505 -1.78601 0.25087 
0.90755 0.50219 1.14616 
1.42235 0.30126 0.80517 
1.42462 -0.34119 0.80229 
0.91193 -0.54561 1.13791 
0.57633 -0.02155 1.38969 
-0.87640 0.50177 1.16340 
-0.87146 -0.54359 1.14727 
-0.55202 -0.01452 1.40678 
-1.39126 0.29936 0.81904 
-1.39012 -0.34259 0.81272 
0.90347 0.50829 -2.41672 
1.42849 0.30823 -2.09575 
1.42908 -0.33912 -2.09672 
0.90439 -0.53904 -2.41835 
0.57956 -0.01529 -2.61619 
-0.88659 0.50728 -2.40983 
-0.88588 -0.53994 -2.41206 
-0.56331 -0.01587 -2.61194 
-1.40900 0.30663 -2.08513 
-1.40869 -0.34064 -2.08670 
-1.43011 1.39435 -0.30786 
-1.43410 1.39805 -0.95620 
-1.75100 0.87161 -0.10876 
-1.75851 0.87604 -1.15723 
-1.95506 0.55120 -0.63385 
-1.43368 -1.43723 -0.96473 
-1.43000 -1.43642 -0.31780 
-1.75133 -0.91323 -0.11605 
-1.75849 -0.91367 -1.16279 
-1.95542 -0.59041 -0.63794 
0.56762 1.92543 -0.33206 
-0.54176 1.92494 -0.32752 
0.56733 1.93011 -0.94419 
-0.54387 1.92951 -0.93969 
0.90759 1.36549 0.56931 
1.06093 1.74019 -0.64069 
1.40028 1.18030 0.25826 
0.01479 1.02807 1.15034 
1.21068 0.87479 0.75588 
0.32153 0.53018 1.38741 
-0.87977 1.36376 0.57796 
-0.28319 0.53014 1.39874 
-1.18125 0.87258 0.76906 
-1.03596 1.73918 -0.63231 
-1.37250 1.17852 0.27015 
0.90981 1.37849 -1.84887 
1.40509 1.18946 -1.54552 
0.00794 1.03504 -2.40268 
1.21543 0.88490 -2.04037 
0.31328 0.54110 -2.59377 
-0.89062 1.37728 -1.84169 
-0.29783 0.54075 -2.59140 
-1.19653 0.88341 -2.03097 
-1.38359 1.18775 -1.53471 
1.95796 0.28679 -0.09188 
1.96263 0.28930 -1.20555 
1.95936 -0.32199 -0.09322 
1.96340 -0.32158 -1.20656 
1.76685 -0.01847 0.40214 
1.77386 -0.01568 -1.70029 
1.06545 -1.77814 -0.64805 
1.40764 -1.22214 -1.54956 
0.57135 -1.96784 -0.95246 
0.91247 -1.41104 -1.85364 
1.40544 -1.22049 0.25170 
0.57201 -1.96675 -0.34125 
0.91252 -1.40970 0.55983 
1.21567 -0.91718 0.74840 
1.21711 -0.91628 -2.04318 
-0.54134 -1.96912 -0.94965 
-0.53942 -1.96794 -0.33866 
0.00972 -1.06693 -2.40651 
0.31423 -0.57205 -2.59565 
-0.88883 -1.41230 -1.84818 
-0.29693 -0.57234 -2.59350 
-1.19552 -0.91766 -2.03526 
-1.03472 -1.78049 -0.64275 
-1.38272 -1.22418 -1.54118 
0.01712 -1.07010 1.13617 
0.33002 -0.57860 1.36239 
-0.87759 -1.40834 0.56483 
-0.27799 -0.55853 1.37848 
-1.17877 -0.91643 0.75578 
-1.37188 -1.22218 0.25907 
-1.73612 -0.02105 0.41456 
-1.92978 0.28428 -0.07830 
-1.92994 -0.32504 -0.08091 
-1.75154 -0.01767 -1.68780 
-1.93829 0.28703 -1.19179 
-1.93834 -0.32409 -1.19373 
0.01344 1.84251 0.20074 
0.27319 1.74232 0.36137 
0.17400 1.58050 0.62449 
-0.14666 1.58023 0.62591 
-0.24613 1.74201 0.36353 
0.01032 1.85443 -1.47248 
0.27077 1.75565 -1.63532 
0.17042 1.59521 -1.89661 
-0.15211 1.59497 -1.89532 
-0.25099 1.75528 -1.63323 
1.62083 1.23637 -0.48294 
1.62188 1.23815 -0.80596 
1.88251 0.81628 -0.64666 
1.78160 0.97581 -0.38456 
1.78356 0.97830 -0.90713 
1.88524 -0.85067 -0.64984 
1.62550 -1.27308 -0.81068 
1.62496 -1.27262 -0.48798 
1.78520 -1.01157 -0.38859 
1.78639 -1.01221 -0.91075 
0.27394 -1.79028 -1.64232 
0.01350 -1.89033 -1.48038 
0.17325 -1.62880 -1.90281 
-0.14941 -1.62905 -1.90185 
-0.24814 -1.79074 -1.64084 
0.27672 -1.78744 0.35077 
0.01669 -1.88746 0.18970 
0.17700 -1.62613 0.61324 
-0.14402 -1.62578 0.61390 
-0.24344 -1.78739 0.35182 
1.01021 0.23787 1.14407 
1.26349 0.13849 0.97353 
1.26461 -0.17971 0.97178 
1.01187 -0.28099 1.14039 
0.84188 -0.02201 1.26028 
-0.97735 0.23814 1.16205 
-0.97629 -0.28054 1.15156 
-0.81085 -0.02046 1.27558 
-1.23098 0.13774 0.98797 
-1.23058 -0.18048 0.98320 
1.00513 0.24575 -2.41942 
1.26688 0.14600 -2.25941 
1.26717 -0.17670 -2.25989 
1.00558 -0.27637 -2.42022 
0.84363 -0.01528 -2.51882 
-0.98782 0.24468 -2.41190 
-0.98749 -0.27738 -2.41302 
-0.82665 -0.01612 -2.51263 
-1.24827 0.14464 -2.25005 
-1.24810 -0.17803 -2.25079 
-1.59485 1.23484 -0.47060 
-1.59699 1.23652 -0.79371 
-1.75509 0.97405 -0.37134 
-1.75877 0.97643 -0.89398 
-1.85664 0.81434 -0.63303 
-1.59703 -1.27612 -0.80179 
-1.59504 -1.27582 -0.47928 
-1.75549 -1.01492 -0.37867 
-1.75895 -1.01521 -0.90050 
-1.85702 -0.85393 -0.63891 
0.01290 2.00591 -0.34485 
0.01172 2.01048 -0.92628 
0.29665 2.00205 -0.48810 
-0.27132 2.00179 -0.48577 
0.29627 2.00440 -0.78541 
-0.27215 2.00411 -0.78309 
0.79096 1.70524 0.13495 
1.25923 1.52970 -0.15836 
0.81556 1.80163 -0.16850 
0.98922 1.51485 0.29222 
1.05509 1.71182 -0.31837 
1.22862 1.42511 0.14179 
0.49443 1.22315 0.92626 
0.78435 0.75994 1.11049 
0.79009 1.19265 0.81979 
0.33776 1.02320 1.11928 
0.93797 0.95576 0.91076 
0.48215 0.77971 1.22616 
-0.46603 1.22144 0.93207 
-0.75285 0.75745 1.12526 
-0.30812 1.02145 1.12448 
-0.76153 1.19053 0.82865 
-0.45012 0.77725 1.23654 
-0.90816 0.95327 0.92310 
-0.76403 1.70435 0.14153 
-1.23266 1.52849 -0.14824 
-0.78922 1.80088 -0.16190 
-0.96190 1.51351 0.30078 
-1.02907 1.71086 -0.30993 
-1.20136 1.42367 0.15210 
0.79146 1.71573 -1.41409 
1.26117 1.53586 -1.12584 
0.81588 1.80844 -1.11052 
1.05584 1.71633 -0.96311 
0.99135 1.52625 -1.57352 
1.23175 1.43437 -1.42615 
0.49138 1.23508 -2.19622 
0.78148 0.76604 -2.37790 
0.79142 1.20576 -2.09468 
0.32984 1.02993 -2.37798 
0.93981 0.96596 -2.18764 
0.47816 0.79005 -2.47084 
-0.47437 1.23442 -2.19235 
-0.76481 0.76510 -2.37185 
-0.31374 1.02950 -2.37543 
-0.77358 1.20471 -2.08845 
-0.46225 0.78947 -2.46714 
-0.92212 0.96477 -2.18030 
-0.77019 1.71472 -1.40783 
-1.23802 1.53445 -1.11604 
-0.79308 1.80751 -1.10406 
-1.03219 1.71520 -0.95481 
-0.97066 1.52497 -1.56571 
-1.21001 1.43287 -1.41656 
2.04221 0.27289 -0.64878 
2.04320 -0.30644 -0.64988 
2.03568 0.13087 -0.36423 
2.03810 0.13186 -0.93412 
2.03627 -0.16509 -0.36482 
2.03854 -0.16465 -0.93464 
1.73886 0.75098 0.13565 
1.55759 0.46046 0.60598 
1.54766 0.90671 0.33764 
1.45520 0.75818 0.57856 
1.83300 0.44978 0.15809 
1.74015 0.30141 0.39812 
1.74476 0.75694 -1.42879 
1.56494 0.46746 -1.89879 
1.55388 0.91499 -1.62799 
1.46182 0.76700 -1.86833 
1.83936 0.45425 -1.45401 
1.74752 0.30617 -1.69433 
1.26484 -1.57068 -1.13161 
0.79495 -1.75040 -1.42063 
1.05993 -1.75259 -0.96995 
1.23487 -1.46794 -1.43126 
0.81979 -1.84460 -1.11777 
0.99446 -1.55975 -1.57900 
1.26428 -1.56922 -0.16550 
0.79569 -1.74821 0.12593 
1.05996 -1.75151 -0.32615 
1.23388 -1.46605 0.13429 
0.82031 -1.84304 -0.17717 
0.99431 -1.55768 0.28356 
1.74253 -0.78827 0.13183 
1.56056 -0.49942 0.60260 
1.83538 -0.48623 0.15576 
1.74199 -0.33867 0.39625 
1.55223 -0.94589 0.33238 
1.45959 -0.79831 0.57319 
1.74651 -0.78917 -1.43131 
1.56587 -0.49867 -1.90025 
1.84042 -0.48616 -1.45551 
1.74818 -0.33760 -1.69531 
1.55582 -0.94704 -1.63098 
1.46334 -0.79848 -1.87075 
0.01520 -2.04950 -0.93571 
0.01640 -2.04839 -0.35530 
0.30016 -2.04371 -0.79460 
0.30063 -2.04316 -0.49777 
-0.26912 -2.04439 -0.79322 
-0.26835 -2.04382 -0.49645 
0.49361 -1.26703 -2.20054 
0.78286 -0.79704 -2.38040 
0.79366 -1.23762 -2.09876 
0.94159 -0.99731 -2.19078 
0.33166 -1.06150 -2.38160 
0.47956 -0.82115 -2.47352 
-0.47241 -1.26761 -2.19747 
-0.76368 -0.79783 -2.37513 
-0.31205 -1.06184 -2.37948 
-0.77186 -1.23858 -2.09380 
-0.46099 -0.82162 -2.47031 
-0.92081 -0.99834 -2.18465 
-0.76805 -1.75186 -1.41632 
-1.23701 -1.57307 -1.12478 
-0.79103 -1.84631 -1.11354 
-0.96893 -1.56136 -1.57334 
-1.03077 -1.75482 -0.96447 
-1.20879 -1.46998 -1.42425 
0.49754 -1.26887 0.91446 
0.78954 -0.80504 1.09870 
0.79476 -1.23815 0.80889 
0.94310 -1.00038 0.90064 
0.33996 -1.06808 1.10548 
0.48772 -0.82734 1.20874 
-0.46241 -1.26479 0.91803 
-0.74752 -0.79966 1.10681 
-0.30331 -1.06215 1.10950 
-0.75824 -1.23442 0.81422 
-0.44327 -0.81608 1.21817 
-0.90448 -0.99688 0.90732 
-0.76226 -1.74896 0.12965 
-1.23207 -1.57159 -0.15919 
-0.78752 -1.84454 -0.17333 
-1.02794 -1.75369 -0.32099 
-0.96041 -1.55808 0.28854 
-1.20055 -1.46761 0.14051 
-0.01747 -0.52480 1.63578 
-0.17610 -0.52637 1.90371 
0.45732 0.09928 1.64588 
0.39967 -0.48782 2.21605 
-0.44782 -0.25162 1.65481 
-0.54675 -0.13629 1.89541 
-1.52763 0.45820 0.61959 
-1.71076 0.74890 0.14906 
-1.42600 0.75595 0.59205 
-1.51931 0.90465 0.35068 
-1.71043 0.29898 0.41130 
[...]
CELL_DATA 2347
SCALARS Strain double 
LOOKUP_TABLE default 
-0.08358
-0.09022
-0.08782
-0.08465
-0.09220
-0.08723
-0.08803
-0.08720
-0.08775
-0.08765
-0.08747
-0.08924
-0.08944
-0.08718
-0.08650
-0.08874
-0.08852
-0.08772
-0.08761
-0.08721
-0.08739
-0.08774
-0.08766
-0.08741
-0.08749
-0.08945
-0.08534
-0.08782
-0.08549
-0.09089
-0.10116
-0.07264
-0.07025
-0.10283
-0.06539
-0.09852
-0.10242
-0.06731
-0.07497
-0.06777
-0.08727
-0.08752
-0.08747
-0.08737
-0.08756
-0.08755
-0.08729
-0.08754
-0.08727
-0.08776
-0.08785
-0.08873
-0.08679
-0.08647
-0.08918
-0.08773
-0.08803
-0.08754
-0.08803
-0.08794
-0.03207
-0.03267
0.06683
0.06876
0.06896
0.06730
-0.03567
-0.03478
0.06526
0.07482
0.07311
0.06391
-0.03111
-0.04874
0.08617
0.05253
0.07593
0.09687
-0.02702
-0.04666
0.04877
0.08975
0.10247
0.07208
-0.03820
-0.03688
0.06804
0.07559
0.07355
0.06655
-0.03516
-0.03539
0.06959
0.07037
0.06996
0.06963
-0.03367
-0.03369
0.06954
0.06946
0.06943
0.06954
-0.03419
-0.03416
0.06947
0.06997
0.06992
0.06942
-0.03456
-0.03474
0.06861
0.07067
0.07035
0.06889
-0.03599
-0.03584
0.07020
0.06921
0.06948
0.06965
-0.03220
-0.03172
0.06247
0.07214
0.07216
0.06258
-0.03375
-0.03392
0.06964
0.06907
0.06893
0.06974
-0.03456
-0.03435
0.06955
0.06952
0.06950
0.06951
-0.03441
-0.03478
0.07056
0.06614
0.06700
0.07145
-0.03280
-0.03196
0.07005
0.06436
0.06514
0.06972
-0.03398
-0.03402
0.06914
0.06973
0.06963
0.06925
-0.03421
-0.03392
0.06915
0.06861
0.06906
0.06901
-0.03410
-0.03405
0.06964
0.06962
0.06967
0.06969
-0.03380
-0.03379
0.06968
0.06924
0.06931
0.06969
-0.03407
-0.03410
0.06982
0.06896
0.06893
0.06988
-0.03273
-0.04231
0.07863
0.07414
0.05954
0.08549
-0.02922
-0.04916
0.04914
0.09137
0.10930
0.07457
-0.03646
-0.03546
0.06842
0.07091
0.07305
0.06733
-0.01056
0.24136
0.19395
0.17539
0.11481
-0.03017
-0.03099
0.07273
0.06252
0.06248
0.07288
-0.02961
-0.03113
0.06950
0.06538
0.06477
0.06934
-0.03408
-0.03408
0.06954
0.06983
0.06980
0.06950
-0.03354
-0.03342
0.06900
0.06939
0.06958
0.06881
-0.03461
-0.03468
0.06972
0.06997
0.06997
0.06970
-0.03520
-0.03493
0.07064
0.06867
0.06859
0.07010
-0.06208
-0.04218
0.07577
0.07882
0.03280
0.03037
-0.06798
-0.04693
0.07551
0.08592
0.03837
0.02982
-0.06656
-0.04660
0.08733
0.07370
0.03027
0.04136
-0.06240
-0.04200
0.07231
0.08597
0.03934
0.02711
-0.07054
-0.04964
0.07910
0.08525
0.03830
0.03373
-0.06499
-0.04397
0.07982
0.07877
0.03278
0.03384
-0.06626
-0.04579
0.08006
0.07998
0.03463
0.03450
-0.06518
-0.04450
0.07980
0.07963
0.03391
0.03409
-0.06576
-0.04506
0.07968
0.08030
0.03458
0.03404
-0.06579
-0.04525
0.07911
0.08042
0.03490
0.03371
-0.06555
-0.04514
0.08189
0.07544
0.03067
0.03678
-0.06730
-0.04646
0.08118
0.07938
0.03393
0.03501
-0.06769
-0.04697
0.08121
0.07908
0.03392
0.03498
-0.06468
-0.04350
0.07497
0.08151
0.03546
0.02946
-0.06475
-0.04435
0.07922
0.07877
0.03317
0.03356
-0.06705
-0.04654
0.08021
0.07935
0.03416
0.03432
-0.06647
-0.04561
0.08007
0.07953
0.03399
0.03432
-0.06578
-0.04516
0.08032
0.07740
0.03227
0.03485
-0.06532
-0.04420
0.08026
0.07693
0.03095
0.03431
-0.06532
-0.04474
0.07913
0.07945
0.03379
0.03358
-0.06551
-0.04500
0.07978
0.07974
0.03404
0.03415
-0.06584
-0.04517
0.07972
0.07998
0.03406
0.03400
-0.06567
-0.04497
0.07984
0.08003
0.03432
0.03428
-0.06536
-0.04465
0.08002
0.07951
0.03394
0.03432
-0.06554
-0.04489
0.08013
0.07942
0.03371
0.03449
-0.06697
-0.04582
0.07699
0.08319
0.03585
0.03087
-0.06418
-0.04425
0.07756
0.07898
0.03329
0.03233
-0.06667
-0.04740
0.08526
0.07465
0.03244
0.04120
-0.06282
-0.04217
0.07227
0.08566
0.04040
0.02741
-0.06902
-0.04795
0.07905
0.08378
0.03622
0.03348
-0.05854
-0.04414
0.08352
0.07319
0.03536
0.03770
-0.06051
-0.04173
0.08200
0.07179
0.02843
0.03796
-0.05858
-0.04124
0.07240
0.07768
0.03492
0.03075
-0.06085
-0.03880
0.07690
0.08289
0.03518
0.02609
-0.01927
-0.20108
0.14274
0.15056
0.02561
0.02603
-0.06276
-0.04874
0.07272
0.08695
0.04613
0.03857
-0.05979
-0.04596
0.08019
0.08458
0.04414
0.04113
-0.03637
0.11480
0.14998
0.02628
0.02596
-0.05889
-0.04002
0.08593
0.07005
0.02686
0.04085
-0.05627
-0.03855
0.08055
0.07272
0.02979
0.03543
-0.06524
-0.04454
0.07976
0.07991
0.03422
0.03413
-0.06555
-0.04485
0.07970
0.08022
0.03453
0.03398
-0.06552
-0.04487
0.08018
0.07974
0.03403
0.03442
-0.06543
-0.04482
0.07981
0.08004
0.03432
0.03421
-0.06558
-0.04491
0.07993
0.08010
0.03446
0.03424
-0.06560
-0.04497
0.08019
0.07967
0.03410
0.03456
-0.06529
-0.04462
0.07963
0.07997
0.03425
0.03389
-0.06557
-0.04491
0.08016
0.07971
0.03410
0.03444
-0.06521
-0.04447
0.07952
0.08001
0.03419
0.03372
-0.06591
-0.04535
0.08004
0.08014
0.03454
0.03444
-0.06644
-0.04662
0.08235
0.07658
0.03215
0.03772
-0.06668
-0.04579
0.08147
0.07896
0.03313
0.03526
-0.06412
-0.04266
0.07567
0.08140
0.03491
0.02999
-0.06460
-0.04410
0.07911
0.07893
0.03335
0.03363
-0.06724
-0.04633
0.08132
0.07906
0.03375
0.03519
-0.06571
-0.04498
0.07931
0.07991
0.03415
0.03354
-0.06621
-0.04579
0.07988
0.07861
0.03335
0.03521
-0.06491
-0.04325
0.07816
0.07915
0.03334
0.03206
-0.06620
-0.04556
0.07998
0.07979
0.03423
0.03440
-0.06611
-0.04557
0.07910
0.07993
0.03467
0.03337
0.06886
0.06838
0.01931
0.02347
0.01939
0.01639
0.07113
0.07097
0.01718
0.02350
0.01945
0.01452
0.07173
0.07195
0.01878
0.02134
0.01870
0.01527
0.07028
0.07072
0.01995
0.02151
0.01880
0.01660
0.07968
0.08305
0.01581
0.01648
0.01728
0.00889
0.07441
0.07352
0.01760
0.02014
0.01668
0.01491
0.06534
0.06486
0.02397
0.02155
0.01802
0.02159
0.07733
0.07574
0.02648
0.02387
0.01865
0.02095
0.07538
0.07495
0.02420
0.01383
0.00947
0.02186
0.12132
-0.07497
0.07378
0.02550
0.08492
0.02497
0.08517
0.08095
0.01304
0.01960
0.01180
0.01414
0.12706
-0.04612
0.08125
0.02577
0.08298
0.02542
0.07487
0.07499
0.02839
0.01304
0.00988
0.02529
0.07467
0.07375
0.01916
0.01894
0.01512
0.01639
0.06721
0.06573
0.02552
0.02030
0.01593
0.02399
0.07223
0.07210
0.02082
0.02013
0.01683
0.01764
0.07211
0.07210
0.02099
0.01966
0.01667
0.01759
0.07199
0.07199
0.02042
0.02087
0.01767
0.01726
0.07185
0.07173
0.02056
0.02082
0.01764
0.01746
0.07207
0.07207
0.02046
0.02080
0.01765
0.01728
0.07256
0.07268
0.02029
0.02016
0.01708
0.01700
0.07240
0.07236
0.02045
0.02044
0.01727
0.01728
0.07182
0.07168
0.02094
0.02041
0.01715
0.01785
0.07158
0.07173
0.02130
0.01985
0.01685
0.01797
0.07339
0.07410
0.02054
0.01608
0.01325
0.01756
0.07150
0.07140
0.02085
0.01997
0.01688
0.01738
0.07224
0.07243
0.02097
0.01701
0.01357
0.01837
0.07180
0.07164
0.02043
0.02012
0.01694
0.01712
0.06579
0.06644
0.02310
0.02094
0.01768
0.01906
0.07231
0.07231
0.02024
0.02034
0.01722
0.01706
0.07222
0.07254
0.02028
0.01900
0.01623
0.01698
0.07204
0.07207
0.02060
0.02007
0.01708
0.01741
0.07192
0.07181
0.02039
0.02008
0.01658
0.01735
0.07205
0.07209
0.02049
0.02054
0.01723
0.01736
0.06820
0.06794
0.02155
0.02058
0.01750
0.01873
0.07006
0.07060
0.02130
0.01983
0.01685
0.01763
0.07536
0.07750
0.01697
0.01873
0.01768
0.01189
0.07235
0.07272
0.01738
0.02172
0.01884
0.01346
0.07190
0.07203
0.02065
0.02060
0.01741
0.01741
0.07193
0.07218
0.02025
0.02001
0.01697
0.01701
0.07140
0.07126
0.01912
0.02127
0.01735
0.01638
0.07220
0.07220
0.02065
0.02032
0.01720
0.01751
0.07224
0.07228
0.02055
0.02049
0.01726
0.01738
0.07166
0.07156
0.02062
0.02083
0.01767
0.01745
0.07188
0.07194
0.02055
0.02073
0.01754
0.01738
0.07221
0.07223
0.02013
0.02086
0.01769
0.01687
0.07162
0.07221
0.02029
0.01990
0.01691
0.01677
0.07243
0.07246
0.01989
0.02059
0.01744
0.01679
0.07670
0.06785
0.03000
0.02580
0.01634
0.03193
0.10287
0.22080
0.05292
0.02492
0.06564
0.02495
0.08444
0.07898
0.01450
0.01908
0.01150
0.01552
0.14698
-0.13810
0.07762
0.02586
0.09524
0.02531
0.07413
0.07295
0.02796
0.01509
0.01124
0.02349
0.06888
0.06822
0.02297
0.01959
0.01621
0.02162
0.06600
0.06676
0.02501
0.02119
0.01764
0.02046
0.07470
0.07389
0.01675
0.02029
0.01736
0.01410
0.07160
0.07134
0.01805
0.02166
0.01937
0.01454
0.07227
0.07241
0.01990
0.02080
0.01768
0.01660
0.07117
0.07109
0.02018
0.02116
0.01779
0.01723
0.07222
0.07232
0.02069
0.01964
0.01651
0.01741
0.06713
0.07055
-0.00760
-0.01019
0.07713
-0.00134
-0.00876
0.06461
-0.00966
-0.00002
0.07535
-0.00324
-0.01204
-0.00162
-0.00475
0.07125
0.07044
-0.00663
-0.00591
0.07110
-0.00535
-0.00537
0.07080
-0.00611
-0.00585
0.07155
-0.00531
-0.00587
-0.00517
-0.00608
0.07247
0.06769
-0.00843
-0.00426
0.07017
-0.00597
-0.00470
0.07238
0.07008
-0.00578
-0.00469
-0.00507
-0.00907
-0.00707
-0.00698
0.07145
0.07037
-0.00586
-0.00542
0.07140
0.07046
-0.00599
-0.00546
0.06914
-0.00720
-0.00540
-0.00792
-0.00575
-0.00653
-0.00651
0.07101
0.07102
-0.00589
-0.00580
0.07130
-0.00565
-0.00577
0.07126
-0.00556
-0.00562
0.07078
-0.00592
-0.00561
-0.00606
-0.00548
0.06846
0.07507
-0.00359
-0.00817
0.07048
-0.00698
-0.00841
0.06581
-0.00833
-0.00090
0.07422
-0.00343
-0.01100
-0.00353
-0.00521
0.06608
0.09803
-0.00588
-0.02316
0.05648
-0.00706
-0.00177
0.06326
-0.00440
-0.00711
0.10285
-0.00237
-0.02461
-0.03032
-0.03559
0.08848
0.07435
-0.01411
-0.00218
0.10311
0.06563
-0.01919
-0.00111
-0.01757
-0.02987
0.05661
-0.01052
0.00322
-0.00677
-0.00448
0.07103
0.07118
-0.00567
-0.00576
0.07140
-0.00538
-0.00576
0.07102
-0.00577
-0.00549
0.07131
-0.00559
-0.00573
-0.00543
-0.00560
0.07141
0.07088
-0.00579
-0.00537
0.07091
0.07124
-0.00568
-0.00599
-0.00579
-0.00545
0.07126
-0.00570
-0.00606
-0.00542
-0.00544
0.07277
0.06833
-0.00749
-0.00357
0.07004
-0.00660
-0.00455
0.07223
-0.00561
-0.00857
0.07040
-0.00670
-0.00680
-0.00560
-0.00461
0.07075
0.07087
-0.00599
-0.00631
0.07035
-0.00618
-0.00536
0.07046
-0.00650
-0.00681
0.07097
-0.00577
-0.00578
-0.00547
-0.00639
0.05539
0.05333
0.07380
0.07628
0.05434
0.05579
0.07700
0.07567
-0.01289
-0.01357
0.04895
-0.01286
-0.01357
0.04718
-0.01485
0.04727
-0.01478
0.04893
0.06023
0.05139
0.07288
0.08286
0.05221
0.06018
0.08006
0.07210
-0.01565
-0.01740
0.05236
-0.01516
-0.01829
0.04261
-0.01654
0.04636
-0.01590
0.05482
0.04822
0.05920
0.08448
0.07375
0.05951
0.07629
0.08222
0.06824
-0.02488
-0.01865
0.05123
0.00461
-0.01487
0.03611
-0.02177
0.05606
-0.04352
0.01571
0.06009
0.04448
0.07086
0.08498
0.07283
0.06727
0.07827
0.08485
0.00897
-0.01029
0.03692
-0.02236
-0.01468
0.04771
-0.04033
0.01453
-0.02332
0.06097
0.06045
0.05477
0.07619
0.08307
0.05435
0.06123
0.08060
0.07390
-0.01766
-0.01970
0.05251
-0.01781
-0.02132
0.04555
-0.01813
0.04846
-0.01778
0.05661
0.05694
0.05657
0.07745
0.07753
0.05623
0.05695
0.07836
0.07713
-0.01624
-0.01737
0.05077
-0.01796
0.04941
-0.01540
-0.01662
0.04990
-0.01699
0.04999
0.05616
0.05629
0.07724
0.07714
0.05636
0.05628
0.07718
0.07731
-0.01420
-0.01559
0.04941
-0.01420
-0.01558
0.04964
-0.01560
0.04973
-0.01562
0.04963
0.05673
0.05622
0.07718
0.07772
0.05626
0.05675
0.07764
0.07713
-0.01465
-0.01606
0.05003
-0.01472
-0.01617
0.04946
-0.01603
0.04962
-0.01607
0.05015
0.05724
0.05578
0.07645
0.07795
0.05530
0.05728
0.07865
0.07651
-0.01527
-0.01649
0.05097
-0.01691
0.04818
-0.01504
-0.01629
0.04927
-0.01662
0.05038
0.05610
0.05681
0.07835
0.07671
0.05660
0.05625
0.07745
0.07705
-0.01740
-0.01902
0.04968
-0.01559
-0.01709
0.04972
-0.01859
0.05053
-0.01690
0.04937
0.05831
0.05036
0.07109
0.07939
0.04923
0.05947
0.08015
0.06963
-0.01147
-0.01327
0.05159
-0.01291
0.04204
-0.01373
-0.01530
0.04420
-0.01507
0.05200
0.05562
0.05621
0.07705
0.07640
0.05662
0.05595
0.07699
0.07762
-0.01434
-0.01555
0.04914
-0.01585
0.04990
-0.01446
-0.01564
0.04964
-0.01597
0.04922
0.05624
0.05638
0.07738
0.07716
0.05625
0.05634
0.07724
0.07719
-0.01519
-0.01687
0.04950
-0.01481
-0.01640
0.04971
-0.01632
0.04968
-0.01604
0.04969
0.05401
0.05744
0.07796
0.07436
0.05758
0.05304
0.07448
0.07961
-0.01509
-0.01628
0.04793
-0.01472
-0.01609
0.05133
-0.01665
0.05027
-0.01693
0.04519
0.05209
0.05658
0.07774
0.07347
0.05689
0.05196
0.07119
0.07687
-0.01325
-0.01520
0.04511
-0.01397
0.05004
-0.01314
-0.01492
0.04997
-0.01422
0.04549
0.05630
0.05591
0.07670
0.07715
0.05607
0.05654
0.07758
0.07709
-0.01464
-0.01596
0.04968
-0.01606
0.04939
-0.01447
-0.01583
0.04941
-0.01587
0.04978
0.05589
0.05600
0.07704
0.07718
0.05572
0.05526
0.07569
0.07653
-0.01449
-0.01609
0.04882
-0.01551
0.04924
-0.01470
-0.01630
0.04923
-0.01564
0.04904
0.05645
0.05645
0.07732
0.07744
0.05646
0.05642
0.07730
0.07745
-0.01453
-0.01597
0.04969
-0.01587
0.04976
-0.01462
-0.01607
0.04984
-0.01596
0.04977
0.05610
0.05648
0.07744
0.07695
0.05644
0.05604
0.07704
0.07741
-0.01434
-0.01575
0.04949
-0.01425
-0.01566
0.04982
-0.01572
0.04977
-0.01564
0.04930
0.05577
0.05669
0.07759
0.07676
0.05650
0.05571
0.07666
0.07752
-0.01474
-0.01609
0.04916
-0.01449
-0.01588
0.05005
-0.01622
0.04966
-0.01591
0.04911
0.05212
0.05845
0.08158
0.07583
0.05495
0.06915
0.07651
0.06669
-0.02096
-0.01845
0.05121
-0.01713
0.05124
-0.00147
-0.01688
0.04164
-0.03042
0.02795
0.06573
0.04572
0.06867
0.08651
0.07704
0.06724
0.08308
0.08346
0.00672
-0.00858
0.05026
-0.02366
-0.01599
0.04935
-0.04334
0.00913
-0.02192
0.05923
0.05811
0.05484
0.07628
0.08116
0.05516
0.05840
0.07788
0.07548
-0.01591
-0.01783
0.05015
-0.01672
0.04896
-0.01643
-0.01972
0.04595
-0.01718
0.05384
-0.04429
-0.12847
0.02005
-0.03967
-0.12919
-0.08940
0.54040
0.03052
-0.11944
-0.07551
-0.13437
0.08648
0.04853
0.06113
0.08218
0.06890
0.05808
0.05070
0.07162
0.07954
-0.00908
-0.00986
0.04222
-0.01159
0.05065
-0.01329
-0.01450
0.05315
-0.01501
0.04473
0.05139
0.05679
0.07797
0.07126
0.05573
0.05294
0.07436
0.07669
-0.01042
-0.01055
0.04459
-0.01328
0.04931
-0.01161
-0.01172
0.04968
-0.01413
0.04587
0.05662
0.05634
0.07732
0.07753
0.05629
0.05659
0.07757
0.07718
-0.01459
-0.01599
0.04997
-0.01599
0.04965
-0.01455
-0.01595
0.04961
-0.01594
0.04990
0.05630
0.05575
0.07685
0.07741
0.05566
0.05616
0.07688
0.07641
-0.01397
-0.01547
0.04951
-0.01523
0.04918
-0.01406
-0.01555
0.04893
-0.01532
0.04970
0.05675
0.05656
0.07748
0.07766
0.05646
0.05672
0.07762
0.07733
-0.01509
-0.01640
0.05008
-0.01656
0.04982
-0.01524
-0.01654
0.04991
-0.01670
0.05000
0.05557
0.05714
0.07865
0.07636
0.05712
0.05542
0.07643
0.07758
-0.01644
-0.01820
0.04907
-0.01754
0.05116
-0.01494
-0.01658
0.05014
-0.01616
0.04874
-0.01389
-0.01889
-0.01394
-0.02134
0.08165
0.08460
-0.01996
-0.02066
0.09267
-0.01557
-0.01152
0.08065
-0.01632
-0.02300
0.09291
-0.01648
-0.01832
-0.01637
-0.01753
0.08560
0.08443
-0.01768
-0.01679
0.08567
-0.01677
-0.01729
0.08550
-0.01743
-0.01738
0.08615
-0.01746
-0.01950
-0.01675
-0.01510
0.08746
0.07964
-0.01839
-0.01649
0.08539
-0.02042
-0.01680
-0.01840
-0.01653
0.08733
0.08480
-0.01959
-0.01689
-0.01805
-0.01703
0.08600
0.08510
-0.01835
-0.01742
-0.01779
-0.01699
0.08595
0.08547
-0.01727
-0.01653
0.08220
-0.01729
-0.01736
-0.01711
-0.01721
0.08549
0.08559
-0.01755
-0.01725
0.08579
-0.01731
-0.01699
0.08579
-0.01689
-0.01707
0.08519
-0.01813
-0.01607
-0.01837
-0.02045
0.08342
0.08923
-0.01608
-0.01949
0.08477
-0.01577
-0.01109
0.07892
-0.01679
-0.02175
0.09221
-0.02071
-0.01483
0.02125
-0.07894
0.08928
0.03005
-0.01638
-0.01437
0.07907
-0.01498
-0.01773
0.08514
0.01836
-0.08016
0.04471
0.00274
-0.05751
-0.02223
-0.01151
0.03656
0.09109
0.01437
-0.06777
-0.02053
-0.01129
0.05572
0.08855
-0.01570
-0.01135
0.07879
-0.01681
-0.01711
-0.01684
-0.01719
0.08544
0.08566
-0.01722
-0.01725
0.08598
-0.01706
-0.01701
0.08554
-0.01710
-0.01715
0.08583
-0.01722
-0.01720
-0.01721
-0.01675
0.08594
0.08534
-0.01691
-0.01714
-0.01685
-0.01752
0.08545
0.08578
-0.01682
-0.01762
0.08590
-0.01856
-0.01845
-0.01790
-0.01401
0.08777
0.08080
-0.01801
-0.01626
0.08504
-0.01661
-0.01978
0.08760
-0.01632
-0.01804
0.08466
-0.01752
-0.01760
-0.01716
-0.01780
0.08536
0.08592
-0.01809
-0.01581
0.08319
-0.01626
-0.01850
0.08492
-0.01791
-0.01726
0.08571
0.04559
0.04793
0.05020
0.04750
0.04643
0.05034
0.05471
0.04063
0.05019
0.09823
-0.02335
-0.01937
0.05769
0.04838
0.04211
0.04856
0.04863
0.04803
0.04837
0.04840
0.04874
0.04899
0.04808
0.04813
0.04996
0.04862
0.04344
0.04798
0.04822
0.04843
0.04863
0.04813
0.04713
0.04846
0.04847
0.04830
0.04404
0.05045
0.04897
0.04813
0.04787
0.04819
0.04851
0.04861
0.04829
0.04795
0.04857
0.04881
0.08670
0.00106
-0.00466
0.05524
0.04823
0.04365
0.04413
0.05081
0.04806
0.04862
0.04755
0.04872
-0.11073
-0.19389
0.02580
0.09988
-0.05525
-0.01229
-0.06372
0.07737
-0.10212
0.01389
-0.02005
-0.08837
-0.00315
-0.00373
-0.04225
-0.13168
0.10374
-0.10654
0.03378
-0.09213
0.21130
-0.15107
-0.05652
-0.10973
0.19654
0.29926
0.17463
-0.03373
-0.00147
-0.19231
0.16064
-0.07558
0.11114
-0.01977
0.08785
-0.05243
0.32761
0.05704
-0.14432
-0.13224
-0.11729
-0.22868
-0.02230
0.22702
0.11504
-0.00939
0.09505
0.15704
0.17777
-0.04676
-0.11517
-0.07843
0.03546
0.01661
-0.04636
0.02352
0.04312
0.07995
0.02946
-0.02832
0.07664
-0.25320
-0.17213
0.16485
-0.05782
-0.00616
0.13876
-0.04409
-0.02569
0.04302
-0.08911
0.14848
-0.10475
0.01803
0.09150
0.06342
0.05413
0.15600
-0.12944
-0.13437
0.12688
0.17848
0.02048
-0.05979
-0.04788
-0.01807
0.00664
0.27252
-0.16888
-0.03133
0.31681
-0.01975
-0.00323
-0.03220
0.05020
0.00272
0.15728
0.12003
-0.10549
0.02265
-0.09331
0.08118
-0.01805
0.10961
0.06266
-0.01964
0.24535
-0.13243
0.09561
0.15676
-0.03777
-0.10002
0.10602
-0.01731
0.00372
0.15784
0.15091
-0.14017
-0.09809
-0.08056
0.04424
0.01400
0.00888
0.02448
0.14986
-0.04250
0.08158
0.14042
0.01513
-0.11980
0.16622
-0.14083
0.20653
-0.04522
0.06369
0.02571
-0.10049
0.02959
0.05054
-0.00349
0.07634
-0.03300
0.09580
-0.08874
0.09670
-0.17273
-0.04205
-0.02959
0.18410
-0.02895
-0.06775
-0.06385
0.00579
-0.01097
0.04288
0.22154
0.06906
-0.05683
0.05171
0.09324
-0.06314
0.07358
0.09183
0.26975
0.14296
-0.07655
0.15154
-0.05264
-0.09934
0.16364
0.01814
0.26814
0.32243
0.18273
-0.02512
-0.14909
-0.10279
-0.21999
0.04692
0.03180
-0.00389
0.02086
0.02381
-0.04776
0.03237
-0.00147
-0.04779
0.09032
0.02668
-0.03279
-0.06067
-0.09972
-0.17405
0.14888
0.02256
-0.01954
-0.11130
0.05126
0.00960
-0.04942
-0.10142
0.23266
-0.05255
0.07990
0.08021
0.02831
0.03806
-0.09412
0.05890
0.13187
-0.02310
-0.09847
0.00403
-0.08945
-0.12822
0.09353
0.11686
0.45562
0.06844
0.15147
-0.09057
-0.04434
-0.11048
0.00160
0.39417
-0.14044
0.00333
-0.03644
0.00823
-0.09056
0.46503
0.12300
0.12601
-0.14583
-0.00168
0.16669
0.11382
0.00561
-0.09844
0.21990
-0.10825
-0.05712
-0.09303
0.08922
0.29780
0.14197
0.18933
0.13016
-0.00495
-0.07306
-0.09394
0.16540
-0.04305
0.34208
-0.14852
-0.03222
0.01723
0.01673
0.14111
0.10556
0.33891
-0.04459
0.05790
0.01582
-0.01019
-0.05579
-0.13163
-0.04722
0.04354
0.00865
-0.13041
-0.17905
-0.12458
0.03300
-0.07895
-0.01319
0.02837
0.07221
-0.10711
0.20100
0.10689
0.14727
-0.01096
-0.13641
-0.05302
-0.07991
0.05245
0.02178
0.03931
-0.15632
0.07633
0.16864
-0.07967
-0.13914
-0.01713
0.02248
0.03292
-0.19472
0.33833
0.16121
0.24239
0.23169
0.09031
0.22954
-0.05136
-0.05500
0.13141
0.02172
0.30105
-0.06026
0.02100
-0.08150
0.11488
0.11425
-0.20324
-0.11417
0.06476
-0.06155
0.08072
0.01663
0.00764
0.30294
0.04213
-0.07046
0.13746
-0.01849
0.11101
0.29362
-0.06039
-0.09488
0.03412
-0.12068
0.33194
-0.02427
0.51801
0.33296
0.12667
-0.05102
0.14798
-0.19920
0.23726
-0.13532
0.00894
-0.06723
0.04457
-0.06248
0.08073
-0.13898
-0.01248
0.05364
-0.01040
0.08764
0.03967
-0.09480
0.16850
0.05021
0.02947
0.35935
-0.10171
0.13329
-0.24762
-0.16399
0.12489
-0.06130
0.11518
-0.01667
0.26446
0.16053
0.08451
-0.09145
-0.11381
0.13180
-0.11876
0.35363
-0.13863
-0.12365
-0.11491
0.05366
-0.06334
0.06504
0.31696
-0.20048
0.23063
-0.05669
0.07155
-0.11362
0.09322
0.00014
-0.03729
-0.06561
-0.06648
0.10950
0.17315
-0.10590
-0.04229
0.20336
-0.07288
0.06563
0.14160
-0.11777
0.02140
-0.06412
0.02718
-0.14492
-0.06663
-0.08301
-0.11305
0.04261
-0.13928
0.07433
-0.10168
-0.15537
-0.26569
0.10247
-0.05576
-0.04401
-0.08124
-0.03376
-0.05571
-0.22483
-0.08736
-0.22009
-0.20322
-0.01665
-0.20007
-0.00282
-0.18643
-0.12218
-0.16129
-0.13445
-0.16525
-0.15211
-0.14630
-0.14224
0.10000
