# vtk DataFile Version 3.0
Point representing Sub_cellular elem model
ASCII

DATASET UNSTRUCTURED_GRID
POINTS 656 float
-0.00125 1.73768 1.01769 
0.00180 1.74045 -1.13008 
1.74155 1.07586 -0.04946 
1.74276 -1.07534 -0.04727 
0.00335 -1.74388 -1.12548 
-0.00044 -1.73775 1.02437 
1.06338 -0.00063 1.71300 
-1.06762 0.00056 1.70537 
1.07995 -0.00219 -1.79027 
-1.07343 -0.00321 -1.79343 
-1.74228 1.07413 -0.05633 
-1.73992 -1.07716 -0.05227 
-0.00010 2.05230 -0.05569 
1.02448 1.65797 0.58182 
0.62928 1.01911 1.61636 
-0.63682 1.02697 1.60198 
-1.02775 1.65842 0.57550 
1.02815 1.66016 -0.68621 
0.63741 1.02415 -1.71135 
-0.63180 1.02369 -1.71344 
-1.02643 1.65967 -0.69049 
2.05298 0.00048 -0.04786 
1.65453 0.63294 0.97820 
1.66355 0.63343 -1.07561 
1.02953 -1.66158 -0.68226 
1.02660 -1.65785 0.58563 
1.65696 -0.63103 0.97905 
1.66409 -0.63541 -1.07427 
0.00204 -2.05260 -0.04963 
0.63824 -1.02875 -1.70905 
-0.63089 -1.02944 -1.71081 
-1.02424 -1.66286 -0.68528 
0.63162 -1.02456 1.61478 
-0.63680 -1.02194 1.61381 
-1.02518 -1.65812 0.58248 
0.25769 0.14719 2.43500 
-1.65888 0.63058 0.97099 
-1.65662 -0.63200 0.97531 
0.00371 -0.00306 -2.10230 
-1.65994 0.63185 -1.08122 
-1.65906 -0.63734 -1.07923 
-2.05180 -0.00208 -0.05440 
-0.00096 1.96960 0.51442 
0.52186 1.76794 0.83918 
0.32229 1.44336 1.36149 
-0.32446 1.44506 1.35760 
-0.52472 1.76880 0.83539 
0.00091 1.97129 -0.62615 
0.52542 1.77086 -0.94793 
0.32613 1.44626 -1.47066 
-0.32138 1.44609 -1.47183 
-0.52253 1.77067 -0.95005 
1.44683 1.41715 0.27302 
1.44925 1.41800 -0.37416 
1.97160 0.57137 -0.04850 
1.76890 0.89401 0.47456 
1.77345 0.89460 -0.57288 
1.97229 -0.57054 -0.04741 
1.45053 -1.41839 -0.37104 
1.44865 -1.41656 0.27598 
1.77059 -0.89263 0.47620 
1.77424 -0.89518 -0.57101 
0.52692 -1.77335 -0.94344 
0.00282 -1.97314 -0.62065 
0.32731 -1.45047 -1.46715 
-0.32010 -1.45086 -1.46806 
-0.52069 -1.77403 -0.94498 
0.52347 -1.76820 0.84444 
0.00095 -1.96917 0.52077 
0.32224 -1.44533 1.36648 
-0.32578 -1.44485 1.36537 
-0.52329 -1.76819 0.84256 
0.88948 0.51925 1.73697 
1.41024 0.32213 1.40347 
1.41259 -0.32033 1.40317 
0.89430 -0.52340 1.73272 
0.53206 -0.00232 1.99393 
-0.90030 0.52500 1.72154 
-0.89357 -0.51923 1.73389 
-0.55668 0.00635 1.97110 
-1.41505 0.32022 1.39660 
-1.41274 -0.32112 1.40100 
0.89834 0.52123 -1.82110 
1.42182 0.32194 -1.49704 
1.42210 -0.32526 -1.49636 
0.89878 -0.52586 -1.81999 
0.57508 -0.00270 -2.02057 
-0.89214 0.52046 -1.82384 
-0.89166 -0.52676 -1.82249 
-0.56788 -0.00323 -2.02218 
-1.41651 0.32060 -1.50148 
-1.41615 -0.32674 -1.50056 
-1.44925 1.41629 0.26617 
-1.44892 1.41696 -0.38014 
-1.77158 0.89191 0.46731 
-1.77192 0.89286 -0.57934 
-1.97151 0.56899 -0.05548 
-1.44646 -1.42004 -0.37525 
-1.44628 -1.41760 0.27187 
-1.76910 -0.89403 0.47137 
-1.77031 -0.89729 -0.57624 
-1.97012 -0.57281 -0.05325 
0.55597 1.94988 0.25113 
-0.55743 1.95014 0.24796 
0.55732 1.95091 -0.35924 
-0.55661 1.95086 -0.36187 
0.89632 1.38933 1.15374 
1.05110 1.76159 -0.05219 
1.39034 1.20287 0.85022 
0.00013 1.05368 1.70907 
1.19863 0.89609 1.34700 
0.29068 0.54965 1.94766 
-0.90160 1.39175 1.14511 
-0.31681 0.56508 1.92049 
-1.20633 0.89740 1.33653 
-1.05192 1.76135 -0.05732 
-1.39540 1.20249 0.84211 
0.90301 1.39347 -1.25727 
1.39724 1.20516 -0.95078 
0.00297 1.04824 -1.81391 
1.20899 0.89881 -1.44475 
0.30898 0.55365 -2.00124 
-0.89908 1.39292 -1.26059 
-0.30224 0.55339 -2.00215 
-1.20426 0.89784 -1.44881 
-1.39449 1.20409 -0.95595 
1.94837 0.30593 0.50840 
1.95329 0.30529 -0.60495 
1.94906 -0.30392 0.50890 
1.95357 -0.30577 -0.60433 
1.75693 0.00139 1.00327 
1.76553 -0.00098 -1.09928 
1.05279 -1.76162 -0.04802 
1.39823 -1.20703 -0.94811 
0.55909 -1.95172 -0.35412 
0.90414 -1.39660 -1.25404 
1.39324 -1.20239 0.85236 
0.55788 -1.94968 0.25641 
0.89908 -1.39090 1.15639 
1.20299 -0.89682 1.34718 
1.20974 -0.90219 -1.44280 
-0.55426 -1.95239 -0.35583 
-0.55499 -1.95009 0.25459 
0.00382 -1.05366 -1.81142 
0.30942 -0.55926 -2.00001 
-0.89760 -1.39769 -1.25662 
-0.30179 -0.55955 -2.00084 
-1.20329 -0.90355 -1.44626 
-1.04917 -1.76264 -0.05118 
-1.39284 -1.20873 -0.95218 
-0.00342 -1.05481 1.71346 
0.29884 -0.55365 1.93571 
-0.90045 -1.39009 1.15389 
-0.30800 -0.55281 1.93302 
-1.20346 -0.89530 1.34583 
-1.39257 -1.20239 0.84886 
-1.75846 -0.00130 0.99820 
-1.94959 0.30312 0.50182 
-1.94862 -0.30626 0.50325 
-1.76117 -0.00287 -1.10481 
-1.95090 0.30310 -0.61143 
-1.95033 -0.30808 -0.61036 
-0.00119 1.87007 0.77721 
0.25954 1.76956 0.93898 
0.16001 1.60764 1.19891 
-0.16234 1.60811 1.19749 
-0.26213 1.77005 0.93707 
0.00137 1.87246 -0.88930 
0.26284 1.77249 -1.04973 
0.16351 1.61063 -1.31032 
-0.15929 1.61057 -1.31092 
-0.25953 1.77240 -1.05077 
1.61147 1.25652 0.11139 
1.61277 1.25685 -0.21128 
1.87309 0.83476 -0.04894 
1.77219 0.99567 0.21177 
1.77443 0.99603 -0.31037 
1.87406 -0.83408 -0.04730 
1.61402 -1.25676 -0.20863 
1.61298 -1.25589 0.11397 
1.77359 -0.99467 0.21371 
1.77539 -0.99599 -0.30832 
0.26438 -1.77548 -1.04514 
0.00312 -1.87514 -0.88422 
0.16488 -1.61450 -1.30623 
-0.15787 -1.61470 -1.30669 
-0.25785 -1.77582 -1.04590 
0.26073 -1.76976 0.94505 
0.00029 -1.86977 0.78371 
0.16027 -1.60842 1.20519 
-0.16249 -1.60834 1.20455 
-0.26112 -1.76974 0.94403 
0.99205 0.25672 1.74112 
1.24913 0.15915 1.57258 
1.25088 -0.15811 1.57179 
0.99581 -0.25903 1.73831 
0.81567 -0.00218 1.86203 
-0.99850 0.26005 1.72988 
-0.99233 -0.25743 1.73762 
-0.82503 0.00221 1.84880 
-1.25321 0.15849 1.56581 
-1.25082 -0.15927 1.56926 
0.99985 0.25873 -1.82246 
1.26082 0.15937 -1.66095 
1.26096 -0.16326 -1.66061 
1.00007 -0.26326 -1.82192 
0.83870 -0.00246 -1.92192 
-0.99345 0.25782 -1.82544 
-0.99321 -0.26423 -1.82476 
-0.83178 -0.00324 -1.92432 
-1.25484 0.15818 -1.66474 
-1.25468 -0.16450 -1.66431 
-1.61308 1.25514 0.10453 
-1.61305 1.25545 -0.21782 
-1.77389 0.99377 0.20466 
-1.77401 0.99426 -0.31709 
-1.87346 0.83267 -0.05596 
-1.61057 -1.25852 -0.21328 
-1.61032 -1.25736 0.10939 
-1.77144 -0.99631 0.20871 
-1.77201 -0.99803 -0.31348 
-1.87152 -0.83612 -0.05273 
-0.00058 2.03123 0.23395 
0.00041 2.03209 -0.34543 
0.28455 2.02620 0.09328 
-0.28532 2.02631 0.09172 
0.28513 2.02667 -0.20308 
-0.28487 2.02670 -0.20451 
0.77952 1.73052 0.71905 
1.24925 1.55248 0.43151 
0.80442 1.82607 0.41663 
0.97840 1.53925 0.87834 
1.04478 1.73482 0.26947 
1.21845 1.44851 0.73117 
0.48159 1.24626 1.50121 
0.76809 0.77806 1.69347 
0.77780 1.21506 1.40148 
0.32336 1.04460 1.68738 
0.92464 0.97637 1.49623 
0.46412 0.79755 1.79717 
-0.48510 1.25071 1.49282 
-0.77821 0.78508 1.67761 
-0.32636 1.05113 1.67760 
-0.78401 1.21953 1.39063 
-0.47534 0.81024 1.77745 
-0.93294 0.98069 1.48363 
-0.78269 1.73139 0.71370 
-1.25226 1.55227 0.42479 
-0.80671 1.82646 0.41184 
-0.98274 1.54043 0.87110 
-1.04688 1.73484 0.26382 
-1.22276 1.44875 0.72367 
0.78324 1.73321 -0.82558 
1.25248 1.55399 -0.53415 
0.80677 1.82770 -0.52295 
1.04666 1.73591 -0.37386 
0.98371 1.54250 -0.98259 
1.22372 1.45097 -0.83365 
0.48576 1.24887 -1.60586 
0.77636 0.77907 -1.78384 
0.78543 1.21977 -1.50263 
0.32485 1.04310 -1.78743 
0.93403 0.97952 -1.59367 
0.47345 0.80288 -1.87842 
-0.48055 1.24856 -1.60753 
-0.77042 0.77845 -1.78629 
-0.31899 1.04287 -1.78848 
-0.78058 1.21925 -1.50536 
-0.46722 0.80251 -1.87990 
-0.92881 0.97882 -1.59677 
-0.78089 1.73289 -0.82881 
-1.25147 1.55325 -0.53937 
-0.80558 1.82746 -0.52653 
-1.04620 1.73551 -0.37855 
-0.98083 1.54196 -0.98643 
-1.22147 1.45019 -0.83844 
2.03238 0.29045 -0.04815 
2.03274 -0.28951 -0.04761 
2.02578 0.14898 0.23683 
2.02827 0.14848 -0.33289 
2.02602 -0.14741 0.23709 
2.02843 -0.14822 -0.33260 
1.72939 0.77189 0.73269 
1.54692 0.48150 1.20385 
1.53780 0.92849 0.93239 
1.44449 0.77972 1.17344 
1.82352 0.46997 0.75725 
1.73035 0.32185 0.99776 
1.73626 0.77255 -0.83068 
1.55762 0.48164 -1.30004 
1.54604 0.93010 -1.03121 
1.45463 0.78132 -1.27117 
1.83067 0.46962 -0.85430 
1.73938 0.32087 -1.09436 
1.25381 -1.55488 -0.53059 
0.78468 -1.73517 -0.82131 
1.04818 -1.73655 -0.36972 
1.22491 -1.45265 -0.83032 
0.80835 -1.82881 -0.51840 
0.98497 -1.54478 -0.97895 
1.25130 -1.55207 0.43486 
0.78148 -1.73067 0.72350 
1.04667 -1.73456 0.27352 
1.22096 -1.44836 0.73413 
0.80635 -1.82587 0.42124 
0.98083 -1.53974 0.88174 
1.73146 -0.77021 0.73397 
1.54950 -0.47948 1.20418 
1.82494 -0.46779 0.75797 
1.73171 -0.31931 0.99816 
1.54074 -0.92736 0.93383 
1.44803 -0.77872 1.17417 
1.73692 -0.77381 -0.82905 
1.55803 -0.48432 -1.29903 
1.83108 -0.47086 -0.85332 
1.73966 -0.32283 -1.09368 
1.54682 -0.93206 -1.02920 
1.45529 -0.78402 -1.26949 
0.00247 -2.03311 -0.33959 
0.00154 -2.03101 0.24017 
0.28709 -2.02720 -0.19745 
0.28656 -2.02615 0.09905 
-0.28259 -2.02752 -0.19835 
-0.28300 -2.02641 0.09811 
0.48677 -1.25332 -1.60295 
0.77700 -0.78372 -1.78214 
0.78642 -1.22368 -1.49985 
0.93483 -0.98355 -1.59151 
0.32569 -1.04817 -1.78503 
0.47410 -0.80805 -1.87664 
-0.47944 -1.25387 -1.60430 
-0.76972 -0.78453 -1.78429 
-0.31812 -1.04852 -1.78591 
-0.77941 -1.22458 -1.50206 
-0.46654 -0.80853 -1.87792 
-0.92786 -0.98457 -1.59413 
-0.77888 -1.73616 -0.82362 
-1.24911 -1.55638 -0.53426 
-0.80326 -1.82981 -0.52081 
-0.97901 -1.54601 -0.98181 
-1.04367 -1.73776 -0.37283 
-1.21952 -1.45417 -0.83390 
0.48223 -1.25003 1.50341 
0.77241 -0.78401 1.68914 
0.78068 -1.21823 1.40264 
0.92892 -0.97966 1.49529 
0.32237 -1.04977 1.68739 
0.46605 -0.80502 1.79123 
-0.48682 -1.24875 1.50211 
-0.77415 -0.77755 1.69158 
-0.32913 -1.04814 1.68656 
-0.78373 -1.21666 1.40089 
-0.47375 -0.80172 1.79033 
-0.93077 -0.97642 1.49526 
-0.78067 -1.73074 0.72092 
-1.24934 -1.55268 0.43123 
-0.80420 -1.82628 0.41865 
-1.04407 -1.73526 0.27034 
-0.98072 -1.53951 0.87878 
-1.22006 -1.44842 0.73072 
0.32348 -0.26286 2.12931 
0.03032 -0.30961 2.33818 
0.39474 0.07585 2.19703 
0.00787 0.11991 2.58036 
-0.17568 -0.42246 2.10382 
-0.42963 -0.08263 2.16712 
-1.55173 0.47921 1.19682 
-1.73299 0.76963 0.72540 
-1.45064 0.77866 1.16497 
-1.54293 0.92713 0.92442 
-1.73332 0.31895 0.99168 
-1.82619 0.46716 0.75058 
-1.54953 -0.48033 1.20131 
[...]
CELL_DATA 1960
SCALARS Strain double 
LOOKUP_TABLE default 
-0.08861
-0.08940
-0.08618
-0.09035
-0.08713
-0.08835
-0.08700
-0.08781
-0.08759
-0.08709
-0.08816
-0.08756
-0.08816
-0.08708
-0.08757
-0.08805
-0.08758
-0.08812
-0.08732
-0.08770
-0.08721
-0.08813
-0.08773
-0.08764
-0.08725
-0.08757
-0.08868
-0.08925
-0.08793
-0.08815
-0.10847
-0.06242
-0.06153
-0.10928
-0.04021
-0.10472
-0.10133
-0.06433
-0.06763
-0.07495
-0.08754
-0.08750
-0.08762
-0.08749
-0.08752
-0.08738
-0.08743
-0.08756
-0.08764
-0.08752
-0.08875
-0.08680
-0.08728
-0.08844
-0.08767
-0.08745
-0.08834
-0.08691
-0.08759
-0.08824
-0.03582
-0.03572
0.07019
0.06942
0.06934
0.07012
-0.03719
-0.03637
0.07053
0.07140
0.07006
0.06968
-0.02261
-0.04164
0.08411
0.04610
0.06811
0.09641
-0.03205
-0.03650
0.06392
0.06767
0.06985
0.06982
-0.03501
-0.03554
0.07009
0.06720
0.06735
0.07040
-0.03354
-0.03364
0.06929
0.06885
0.06892
0.06939
-0.03421
-0.03416
0.06934
0.06985
0.06978
0.06943
-0.03398
-0.03394
0.06989
0.06903
0.06921
0.06987
-0.03327
-0.03318
0.06973
0.06784
0.06816
0.06970
-0.03489
-0.03485
0.06985
0.06945
0.06962
0.06964
-0.03099
-0.02958
0.06591
0.06956
0.07034
0.06504
-0.03416
-0.03413
0.06961
0.06946
0.06935
0.06965
-0.03382
-0.03376
0.06887
0.06938
0.06934
0.06891
-0.03539
-0.03550
0.06914
0.06922
0.06948
0.06928
-0.03211
-0.03093
0.06934
0.06615
0.06741
0.06830
-0.03438
-0.03436
0.06954
0.06964
0.06958
0.06962
-0.03514
-0.03519
0.06939
0.06941
0.06946
0.06947
-0.03415
-0.03411
0.06924
0.06980
0.06983
0.06933
-0.03404
-0.03401
0.06981
0.06922
0.06934
0.06976
-0.03367
-0.03368
0.06944
0.06878
0.06869
0.06950
-0.02887
-0.04225
0.07445
0.07418
0.05795
0.08471
-0.02403
-0.03411
0.05328
0.07498
0.08218
0.06313
-0.03651
-0.03636
0.07042
0.06935
0.06985
0.07033
-0.16921
-0.09229
-0.05800
-0.06582
-0.24838
0.07732
-0.02982
-0.03125
0.06511
0.06839
0.06598
0.06697
-0.02895
-0.03036
0.06865
0.06547
0.06357
0.07036
-0.03402
-0.03403
0.06951
0.06946
0.06946
0.06951
-0.03464
-0.03479
0.06977
0.06994
0.06998
0.06971
-0.03424
-0.03427
0.06944
0.06980
0.06988
0.06929
-0.03494
-0.03507
0.06919
0.07041
0.07004
0.06919
-0.06705
-0.04661
0.08050
0.07849
0.03301
0.03462
-0.06817
-0.04801
0.08105
0.07896
0.03336
0.03620
-0.06238
-0.03921
0.07830
0.07722
0.02808
0.03016
-0.06978
-0.05011
0.08106
0.07870
0.03448
0.03643
-0.06510
-0.04490
0.07831
0.07777
0.03183
0.03262
-0.06674
-0.04636
0.07998
0.08040
0.03484
0.03454
-0.06497
-0.04431
0.07982
0.07915
0.03324
0.03406
-0.06581
-0.04509
0.07942
0.08043
0.03468
0.03398
-0.06556
-0.04485
0.08044
0.07910
0.03373
0.03473
-0.06499
-0.04421
0.08023
0.07876
0.03277
0.03439
-0.06664
-0.04654
0.08025
0.07929
0.03433
0.03554
-0.06544
-0.04461
0.07969
0.07947
0.03360
0.03385
-0.06636
-0.04574
0.07995
0.07987
0.03452
0.03425
-0.06445
-0.04291
0.07839
0.07970
0.03331
0.03210
-0.06564
-0.04500
0.07959
0.07973
0.03414
0.03402
-0.06623
-0.04564
0.07970
0.07990
0.03449
0.03402
-0.06550
-0.04473
0.07952
0.07946
0.03367
0.03373
-0.06646
-0.04607
0.07982
0.07941
0.03409
0.03451
-0.06495
-0.04372
0.07946
0.07883
0.03260
0.03319
-0.06581
-0.04520
0.07981
0.07957
0.03401
0.03423
-0.06521
-0.04456
0.07982
0.07923
0.03342
0.03408
-0.06639
-0.04588
0.07990
0.08004
0.03440
0.03433
-0.06573
-0.04503
0.07941
0.08029
0.03457
0.03393
-0.06563
-0.04492
0.08028
0.07933
0.03387
0.03456
-0.06523
-0.04453
0.07997
0.07912
0.03329
0.03423
-0.06591
-0.04580
0.07903
0.07808
0.03287
0.03359
-0.06671
-0.04604
0.07908
0.07961
0.03379
0.03354
-0.06771
-0.04648
0.07749
0.08182
0.03466
0.03140
-0.06530
-0.04299
0.08073
0.07672
0.02963
0.03235
-0.06666
-0.04670
0.08004
0.07777
0.03275
0.03520
-0.06413
-0.04001
0.08335
0.09537
0.04740
0.03229
-0.05439
-0.03817
0.08203
0.07156
0.02928
0.03806
-0.05571
-0.03964
0.07286
0.07881
0.03588
0.03185
-0.05960
-0.03391
0.07934
0.08974
0.03810
0.02464
0.03846
0.19574
0.17567
0.19333
0.02579
0.02586
-0.06145
-0.03503
0.08451
0.06962
0.01764
0.03327
-0.07094
-0.04478
0.09485
0.07933
0.02883
0.04491
-0.02080
0.14599
0.12977
0.02620
0.02681
-0.05520
-0.03850
0.07278
0.07175
0.03229
0.03206
-0.05669
-0.03814
0.08160
0.06858
0.02690
0.03875
-0.06559
-0.04495
0.07986
0.07983
0.03412
0.03426
-0.06556
-0.04493
0.07977
0.07993
0.03424
0.03401
-0.06573
-0.04514
0.07994
0.07990
0.03420
0.03426
-0.06554
-0.04491
0.07994
0.07970
0.03397
0.03429
-0.06552
-0.04485
0.07984
0.07975
0.03409
0.03415
-0.06539
-0.04474
0.07969
0.07992
0.03427
0.03387
-0.06545
-0.04481
0.07980
0.07983
0.03423
0.03404
-0.06556
-0.04487
0.07979
0.07986
0.03420
0.03415
-0.06582
-0.04532
0.07989
0.08019
0.03453
0.03420
-0.06561
-0.04502
0.07972
0.08016
0.03445
0.03394
-0.06721
-0.04665
0.07865
0.08094
0.03537
0.03343
-0.06466
-0.04396
0.07842
0.07960
0.03372
0.03285
-0.06470
-0.04318
0.08004
0.07789
0.03133
0.03300
-0.06648
-0.04574
0.07982
0.08029
0.03469
0.03434
-0.06599
-0.04558
0.07865
0.08046
0.03520
0.03338
-0.06533
-0.04455
0.07956
0.07944
0.03355
0.03369
-0.06692
-0.04679
0.08016
0.07959
0.03458
0.03541
-0.06413
-0.04243
0.07839
0.07962
0.03284
0.03163
-0.06570
-0.04509
0.07962
0.07975
0.03418
0.03410
-0.06651
-0.04593
0.08008
0.07990
0.03461
0.03438
0.07280
0.07297
0.01930
0.01947
0.01615
0.01609
0.07201
0.07219
0.02079
0.01819
0.01513
0.01735
0.07178
0.07175
0.02117
0.01939
0.01612
0.01799
0.07253
0.07237
0.02100
0.01877
0.01533
0.01797
0.07612
0.07990
0.02305
0.01257
0.01319
0.01589
0.07183
0.07146
0.02096
0.01965
0.01620
0.01795
0.07098
0.06955
0.02317
0.01879
0.01453
0.02175
0.07597
0.08902
0.01198
0.02258
0.02238
0.00247
0.06957
0.07127
0.02989
0.01632
0.01471
0.02394
0.12188
-0.13972
0.08390
0.02561
0.07408
0.02576
0.06948
0.06951
0.01901
0.02024
0.01704
0.01517
0.07938
0.03885
0.03932
0.02605
0.06172
0.02590
0.06716
0.06665
0.01974
0.02118
0.01855
0.01691
0.06996
0.07011
0.02153
0.02004
0.01704
0.01816
0.07313
0.07254
0.02002
0.01708
0.01402
0.01698
0.07157
0.07172
0.02040
0.02091
0.01764
0.01727
0.07198
0.07206
0.02017
0.02058
0.01753
0.01706
0.07240
0.07241
0.02040
0.02019
0.01711
0.01727
0.07220
0.07209
0.02038
0.02053
0.01732
0.01713
0.07198
0.07201
0.02061
0.02039
0.01717
0.01745
0.07129
0.07100
0.02106
0.02069
0.01756
0.01790
0.07184
0.07192
0.02061
0.02051
0.01731
0.01745
0.07236
0.07232
0.02001
0.02083
0.01761
0.01664
0.07227
0.07237
0.01937
0.02106
0.01790
0.01642
0.07262
0.07285
0.02117
0.01825
0.01513
0.01828
0.07184
0.07181
0.02048
0.02037
0.01721
0.01727
0.07224
0.07220
0.02115
0.01862
0.01527
0.01843
0.07203
0.07201
0.02025
0.02037
0.01721
0.01703
0.06777
0.06817
0.02298
0.02180
0.01847
0.01901
0.07218
0.07217
0.02026
0.02048
0.01727
0.01703
0.07141
0.07151
0.01987
0.02054
0.01745
0.01662
0.07195
0.07202
0.02004
0.02064
0.01754
0.01690
0.07183
0.07185
0.01963
0.02069
0.01748
0.01639
0.07152
0.07163
0.02041
0.02084
0.01761
0.01728
0.07150
0.07086
0.02117
0.01894
0.01537
0.01832
0.07188
0.07187
0.01942
0.01998
0.01668
0.01634
0.07204
0.07312
0.02095
0.01754
0.01567
0.01592
0.07030
0.07025
0.01926
0.02246
0.01866
0.01706
0.07220
0.07226
0.02054
0.02022
0.01696
0.01732
0.07196
0.07194
0.02072
0.01947
0.01620
0.01764
0.07215
0.07248
0.01982
0.01927
0.01615
0.01650
0.07236
0.07235
0.02034
0.02029
0.01718
0.01722
0.07190
0.07195
0.02062
0.02044
0.01723
0.01745
0.07159
0.07143
0.02084
0.02057
0.01744
0.01761
0.07193
0.07198
0.02059
0.02046
0.01726
0.01744
0.07219
0.07208
0.02026
0.02072
0.01750
0.01699
0.07125
0.07146
0.01968
0.02102
0.01777
0.01641
0.07210
0.07221
0.02001
0.02061
0.01754
0.01690
0.08522
0.08528
0.01767
0.01473
0.01217
0.01372
0.11123
-0.07894
0.07397
0.02548
0.07495
0.02574
0.07433
0.07303
0.01473
0.02309
0.01834
0.01268
0.10008
0.12382
0.03379
0.02587
0.07615
0.02565
0.06694
0.06912
0.02838
0.01636
0.01624
0.02295
0.07197
0.07019
0.02286
0.01797
0.01363
0.02113
0.06672
0.06585
0.02039
0.02449
0.02055
0.01808
0.07079
0.07147
0.01834
0.02217
0.01976
0.01455
0.07337
0.07327
0.01746
0.02127
0.01828
0.01425
0.07248
0.07245
0.02048
0.02012
0.01682
0.01727
0.07221
0.07231
0.02065
0.01981
0.01671
0.01744
0.07169
0.07166
0.02049
0.02056
0.01729
0.01738
0.07197
0.06890
-0.00746
-0.00526
0.06909
-0.00696
-0.00375
0.07024
-0.00910
-0.00954
0.07068
-0.00395
-0.00489
-0.00739
-0.00854
0.07117
0.07148
-0.00510
-0.00529
0.07052
-0.00665
-0.00589
0.07174
-0.00513
-0.00591
0.07027
-0.00615
-0.00513
-0.00687
-0.00560
0.07129
0.07044
-0.00571
-0.00479
0.07056
-0.00642
-0.00586
0.07089
0.07114
-0.00524
-0.00571
-0.00656
-0.00694
-0.00572
-0.00614
0.07075
0.07111
-0.00541
-0.00590
0.07105
0.07058
-0.00635
-0.00601
0.07058
-0.00581
-0.00535
-0.00669
-0.00652
-0.00610
-0.00569
0.07113
0.07059
-0.00643
-0.00584
0.07126
-0.00542
-0.00548
0.07153
-0.00531
-0.00594
0.07051
-0.00602
-0.00532
-0.00650
-0.00571
0.06998
0.06964
-0.00704
-0.00706
0.07091
-0.00604
-0.00653
0.07155
-0.00549
-0.00682
0.06887
-0.00874
-0.00665
-0.00721
-0.00544
0.07078
0.11488
0.00606
-0.01136
0.05334
-0.00918
0.00094
0.06539
-0.00180
-0.00606
0.11964
0.00069
-0.02178
-0.05267
-0.05800
0.10470
0.06093
-0.02747
0.00093
0.08987
0.07478
-0.00652
0.00492
-0.03507
-0.02862
0.05509
-0.00804
-0.00636
-0.01413
0.00286
0.07103
0.07111
-0.00572
-0.00570
0.07113
-0.00569
-0.00585
0.07113
-0.00569
-0.00566
0.07100
-0.00587
-0.00567
-0.00578
-0.00571
0.07104
0.07108
-0.00571
-0.00592
0.07114
0.07099
-0.00574
-0.00576
-0.00563
-0.00569
0.07132
-0.00546
-0.00571
-0.00552
-0.00591
0.07021
0.07172
-0.00466
-0.00580
0.07063
-0.00663
-0.00685
0.06960
-0.00779
-0.00618
0.07167
-0.00503
-0.00580
-0.00490
-0.00667
0.07130
0.07048
-0.00658
-0.00596
0.07051
-0.00553
-0.00465
0.07082
-0.00686
-0.00716
0.07124
-0.00564
-0.00617
-0.00504
-0.00568
0.05573
0.05685
0.07789
0.07664
0.05701
0.05653
0.07732
0.07788
-0.01605
-0.01743
0.04902
-0.01650
-0.01798
0.05006
-0.01735
0.05037
-0.01771
0.04998
0.05622
0.05779
0.07855
0.07779
0.05675
0.05802
0.07781
0.07697
-0.01649
-0.01799
0.04909
-0.01783
-0.02088
0.04923
-0.01743
0.05043
-0.01825
0.05298
0.04284
0.05177
0.07767
0.07173
0.06417
0.06828
0.07538
0.07580
-0.01784
-0.01078
0.04545
0.01194
-0.00739
0.02887
-0.01751
0.05727
-0.03821
0.01261
0.04556
0.05390
0.08391
0.07186
0.06205
0.04899
0.06015
0.07017
-0.00290
-0.02429
0.02304
-0.01581
-0.01608
0.04794
-0.02042
0.03433
-0.01277
0.04592
0.05374
0.05649
0.07680
0.07428
0.05736
0.05469
0.07557
0.07852
-0.01519
-0.01605
0.04732
-0.01650
-0.01716
0.05008
-0.01690
0.05042
-0.01848
0.04784
0.05548
0.05622
0.07715
0.07658
0.05593
0.05584
0.07681
0.07703
-0.01400
-0.01534
0.04875
-0.01551
0.04909
-0.01419
-0.01549
0.04961
-0.01571
0.04925
0.05671
0.05617
0.07698
0.07772
0.05621
0.05652
0.07739
0.07721
-0.01463
-0.01608
0.04995
-0.01472
-0.01618
0.04958
-0.01599
0.04946
-0.01607
0.04989
0.05593
0.05679
0.07776
0.07665
0.05655
0.05593
0.07702
0.07747
-0.01454
-0.01597
0.04940
-0.01437
-0.01581
0.05011
-0.01590
0.04990
-0.01573
0.04906
0.05474
0.05656
0.07761
0.07600
0.05627
0.05493
0.07561
0.07726
-0.01372
-0.01525
0.04777
-0.01499
0.04968
-0.01384
-0.01528
0.04991
-0.01520
0.04855
0.05653
0.05643
0.07753
0.07724
0.05664
0.05621
0.07725
0.07735
-0.01595
-0.01740
0.05007
-0.01495
-0.01636
0.04966
-0.01726
0.05030
-0.01633
0.04943
0.05572
0.05315
0.07479
0.07742
0.05172
0.05828
0.07832
0.07120
-0.00984
-0.01280
0.04812
-0.00936
0.04609
-0.01252
-0.01443
0.04644
-0.01347
0.05116
0.05627
0.05636
0.07723
0.07710
0.05643
0.05615
0.07719
0.07740
-0.01471
-0.01615
0.04973
-0.01606
0.04972
-0.01463
-0.01603
0.04972
-0.01600
0.04941
0.05599
0.05577
0.07673
0.07702
0.05559
0.05623
0.07717
0.07662
-0.01433
-0.01580
0.04925
-0.01429
-0.01575
0.04916
-0.01569
0.04887
-0.01563
0.04960
0.05623
0.05637
0.07711
0.07695
0.05536
0.05634
0.07691
0.07587
-0.01560
-0.01692
0.04969
-0.01621
-0.01753
0.04976
-0.01679
0.04883
-0.01795
0.04902
0.05397
0.05518
0.07692
0.07570
0.05668
0.05379
0.07247
0.07620
-0.01273
-0.01477
0.04691
-0.01330
0.05018
-0.01256
-0.01461
0.04784
-0.01313
0.04826
0.05634
0.05641
0.07725
0.07719
0.05635
0.05642
0.07739
0.07735
-0.01487
-0.01625
0.04971
-0.01623
0.04964
-0.01491
-0.01633
0.04983
-0.01625
0.04970
0.05642
0.05639
0.07725
0.07738
0.05604
0.05598
0.07685
0.07709
-0.01561
-0.01693
0.04971
-0.01705
0.04930
-0.01573
-0.01704
0.04982
-0.01716
0.04931
0.05667
0.05610
0.07691
0.07765
0.05608
0.05653
0.07745
0.07709
-0.01461
-0.01604
0.04995
-0.01596
0.04933
-0.01466
-0.01611
0.04951
-0.01602
0.04988
0.05607
0.05665
0.07764
0.07686
0.05649
0.05611
0.07714
0.07737
-0.01459
-0.01603
0.04949
-0.01446
-0.01590
0.04992
-0.01595
0.04986
-0.01581
0.04933
0.05541
0.05638
0.07732
0.07650
0.05600
0.05567
0.07662
0.07707
-0.01416
-0.01562
0.04866
-0.01423
-0.01560
0.04976
-0.01553
0.04924
-0.01569
0.04908
0.05115
0.04730
0.07289
0.08151
0.05174
0.07437
0.07518
0.06053
-0.01805
-0.01427
0.04930
-0.01411
0.04849
0.00335
-0.01842
0.02693
-0.03556
0.02068
0.04534
0.04690
0.07905
0.07254
0.05294
0.06353
0.08487
0.07218
0.00923
-0.01425
0.02209
-0.01376
-0.01108
0.04373
-0.01900
0.02106
-0.01728
0.05478
0.05538
0.05780
0.07793
0.07600
0.05698
0.05733
0.07746
0.07751
-0.01612
-0.01726
0.04871
-0.01742
0.05026
-0.01792
-0.01968
0.05060
-0.01871
0.05165
0.36591
-0.03581
-0.14569
-0.22665
-0.11679
-0.16194
-0.17525
0.44650
-0.23083
0.00981
-0.06976
-0.16223
0.05462
0.05378
0.07187
0.07195
0.05271
0.05412
0.07683
0.07494
-0.01271
-0.01335
0.04996
-0.01481
0.04530
-0.01111
-0.01125
0.04874
-0.01358
0.04613
0.05062
0.05853
0.07736
0.06894
0.05502
0.05228
0.07466
0.07736
-0.00949
-0.00903
0.04669
-0.01251
0.04673
-0.01211
-0.01340
0.05207
-0.01401
0.04513
0.05625
0.05629
0.07725
0.07718
0.05632
0.05628
0.07720
0.07726
-0.01450
-0.01589
0.04955
-0.01590
0.04964
-0.01450
-0.01589
0.04960
-0.01591
0.04959
0.05675
0.05642
0.07740
0.07770
0.05669
0.05669
0.07754
0.07756
-0.01529
-0.01650
0.05004
-0.01686
0.05007
-0.01518
-0.01644
0.04972
-0.01669
0.05002
0.05664
0.05608
0.07715
0.07764
0.05627
0.05653
0.07736
0.07706
-0.01485
-0.01618
0.04991
-0.01629
0.04974
-0.01469
-0.01606
0.04928
-0.01607
0.04994
0.05735
0.05575
0.07650
0.07785
0.05639
0.05670
0.07789
0.07714
-0.01640
-0.01753
0.05123
-0.01789
0.04979
-0.01488
-0.01619
0.04912
-0.01635
0.04983
-0.01852
-0.01904
-0.01912
-0.01688
0.08648
0.08497
-0.02171
-0.01377
0.08662
-0.01272
-0.02325
0.08733
-0.02026
-0.01658
0.08192
-0.01835
-0.01652
-0.01863
-0.01659
0.08554
0.08610
-0.01663
-0.01732
0.08512
-0.01746
-0.01724
0.08610
-0.01705
-0.01654
0.08468
-0.01821
-0.01688
-0.01865
-0.01528
0.08547
0.08420
-0.01704
-0.01737
0.08548
-0.01858
-0.01619
-0.01758
-0.01720
0.08596
0.08544
-0.01834
-0.01648
-0.01753
-0.01741
0.08557
0.08558
-0.01709
-0.01798
-0.01705
-0.01752
0.08522
0.08544
-0.01838
-0.01635
0.08478
-0.01687
-0.01803
-0.01679
-0.01728
0.08554
0.08510
-0.01811
-0.01687
0.08569
-0.01737
-0.01729
0.08600
-0.01714
-0.01678
0.08502
-0.01770
-0.01832
-0.01784
-0.01808
0.08513
0.08320
-0.01843
-0.01813
0.08571
-0.02068
-0.01739
0.09018
-0.01567
-0.01938
0.08331
-0.02076
-0.00816
0.02663
-0.07830
0.08640
0.02453
-0.01427
-0.01331
0.08034
-0.01316
-0.01692
0.08467
0.03734
-0.10019
0.01986
0.01512
-0.08017
-0.01492
-0.01351
0.04209
0.07875
-0.00535
-0.04646
-0.02222
-0.00830
0.07739
0.08340
-0.01084
-0.01533
0.07794
-0.01716
-0.01721
-0.01724
-0.01711
0.08564
0.08557
-0.01717
-0.01737
0.08574
-0.01738
-0.01713
0.08574
-0.01718
-0.01710
0.08548
-0.01708
-0.01712
-0.01691
-0.01752
0.08547
0.08577
-0.01713
-0.01714
-0.01698
-0.01729
0.08555
0.08561
-0.01749
-0.01721
0.08602
-0.01822
-0.01609
-0.01966
-0.01667
0.08386
0.08645
-0.01642
-0.01821
0.08574
-0.01568
-0.01828
0.08430
-0.01798
-0.01730
0.08596
-0.01677
-0.01835
-0.01698
-0.01750
0.08524
0.08556
-0.01912
-0.01505
0.08467
-0.01587
-0.01899
0.08624
-0.01720
-0.01759
0.08537
0.04917
0.04775
0.04757
0.04890
0.04861
0.04626
0.05385
0.04642
0.04550
0.10035
-0.02091
-0.02549
0.04602
0.04437
0.04934
0.04810
0.04841
0.04859
0.04864
0.04836
0.04823
0.04756
0.04884
0.04871
0.04944
0.04894
0.04539
0.04813
0.04836
0.04847
0.04760
0.04799
0.04843
0.04839
0.04798
0.04864
0.04779
0.04823
0.04627
0.04800
0.04875
0.04740
0.04862
0.04830
0.04830
0.04794
0.04859
0.04857
0.10471
-0.02541
-0.02837
0.05171
0.04383
0.04787
0.04410
0.04828
0.05049
0.04873
0.04847
0.04792
-0.16448
-0.11018
0.04180
-0.14427
0.04857
0.13794
0.10160
0.19872
-0.09856
0.00859
0.13563
-0.10989
-0.12727
0.07486
0.07492
-0.00762
0.02744
0.00683
-0.14588
-0.09703
-0.03613
-0.15674
-0.01284
-0.01599
-0.06820
-0.07252
0.02340
-0.11160
0.20511
-0.06310
0.16271
0.09739
-0.03761
-0.13479
-0.02262
-0.02897
-0.17012
-0.14173
-0.07981
0.14763
0.16937
0.03091
-0.08872
0.02858
-0.01812
0.03807
0.10000
