# vtk DataFile Version 3.0
Point representing Sub_cellular elem model
ASCII

DATASET UNSTRUCTURED_GRID
POINTS 733 float
0.00544 1.72201 0.67616 
0.00603 1.73215 -1.47366 
1.74671 1.06563 -0.39513 
1.74535 -1.08651 -0.39583 
0.00557 -1.75170 -1.47481 
0.00320 -1.74334 0.67905 
1.07790 -0.00941 1.36242 
-1.07069 -0.01386 1.35567 
1.08357 -0.00979 -2.13616 
-1.06982 -0.00981 -2.14048 
-1.73550 1.06326 -0.40007 
-1.73378 -1.08638 -0.39823 
0.00502 2.04102 -0.39812 
1.02971 1.64640 0.23755 
0.63489 1.00515 1.27700 
-0.62462 1.00461 1.26573 
-1.01925 1.64432 0.23372 
1.03263 1.65113 -1.03020 
0.64151 1.01675 -2.05592 
-0.62774 1.01671 -2.05854 
-1.02141 1.65012 -1.03361 
2.05737 -0.01072 -0.39527 
1.66043 0.62162 0.63041 
1.66763 0.62444 -1.42093 
1.03150 -1.67091 -1.03132 
1.02761 -1.66689 0.23683 
1.66017 -0.64295 0.62927 
1.66721 -0.64482 -1.42157 
0.00434 -2.05992 -0.39781 
0.64111 -1.03634 -2.05725 
-0.62797 -1.03629 -2.05952 
-1.02066 -1.67023 -1.03327 
0.63715 -1.03198 1.27089 
-0.62516 -1.03017 1.27922 
-1.01864 -1.66589 0.23785 
0.03098 0.58155 2.12686 
-1.65046 0.61843 0.62522 
-1.64945 -0.64546 0.63001 
0.00746 -0.00954 -2.44895 
-1.65542 0.62367 -1.42631 
-1.65496 -0.64494 -1.42620 
-2.04549 -0.01247 -0.39962 
0.00496 1.95606 0.17241 
0.52741 1.75441 0.49633 
0.32854 1.42754 1.02040 
-0.31580 1.42661 1.01789 
-0.51685 1.75310 0.49418 
0.00543 1.96178 -0.96912 
0.52971 1.76226 -1.29152 
0.33030 1.43861 -1.81477 
-0.31721 1.43854 -1.81603 
-0.51809 1.76188 -1.29337 
1.45214 1.40662 -0.07218 
1.45409 1.40843 -0.71890 
1.97657 0.56071 -0.39509 
1.77441 0.88301 0.12796 
1.77807 0.88496 -0.91837 
1.97581 -0.58199 -0.39549 
1.45269 -1.42869 -0.71984 
1.45032 -1.42725 -0.07305 
1.77320 -0.90435 0.12724 
1.77720 -0.90565 -0.91905 
0.52894 -1.78183 -1.29272 
0.00495 -1.98099 -0.96967 
0.32977 -1.45827 -1.81624 
-0.31755 -1.45819 -1.81724 
-0.51811 -1.78148 -1.29391 
0.52513 -1.77501 0.49687 
0.00374 -1.97556 0.17381 
0.32566 -1.45100 1.02180 
-0.31894 -1.45046 1.02422 
-0.51792 -1.77437 0.49813 
0.89853 0.51271 1.39252 
1.41781 0.31191 1.05485 
1.41915 -0.33163 1.05302 
0.90585 -0.53440 1.38511 
0.57763 -0.01229 1.63842 
-0.89025 0.50845 1.38015 
-0.88852 -0.53722 1.39213 
-0.57282 -0.02149 1.62119 
-1.40919 0.30832 1.04909 
-1.40847 -0.33622 1.05408 
0.90225 0.51382 -2.16622 
1.42557 0.31367 -1.84244 
1.42543 -0.33363 -1.84285 
0.90206 -0.53333 -2.16697 
0.57880 -0.00962 -2.36673 
-0.88828 0.51381 -2.16996 
-0.88838 -0.53333 -2.17046 
-0.56424 -0.00960 -2.36923 
-1.41259 0.31345 -1.84765 
-1.41253 -0.33373 -1.84780 
-1.44140 1.40415 -0.07676 
-1.44298 1.40666 -0.72335 
-1.76353 0.88010 0.12295 
-1.76642 0.88336 -0.92352 
-1.96499 0.55840 -0.40003 
-1.44145 -1.42801 -0.72212 
-1.43968 -1.42656 -0.07369 
-1.76193 -0.90513 0.12607 
-1.76526 -0.90564 -0.92270 
-1.96389 -0.58278 -0.39887 
0.56105 1.93834 -0.09194 
-0.55099 1.93720 -0.09387 
0.56193 1.94106 -0.70249 
-0.55141 1.94029 -0.70436 
0.90185 1.37654 0.80996 
1.05599 1.75144 -0.39623 
1.39594 1.19155 0.50431 
0.00726 1.03329 1.37283 
1.20498 0.88524 1.00129 
0.29718 0.52471 1.62362 
-0.89085 1.37479 0.80449 
-0.30075 0.52652 1.59766 
-1.19518 0.88282 0.99353 
-1.04546 1.74973 -0.39965 
-1.38548 1.18895 0.49891 
0.90722 1.38531 -1.60142 
1.40159 1.19633 -1.29539 
0.00709 1.04127 -2.15876 
1.21303 0.89070 -1.78943 
0.31298 0.54684 -2.34667 
-0.89479 1.38494 -1.60473 
-0.29827 0.54687 -2.34804 
-1.20014 0.89041 -1.79395 
-1.38974 1.19540 -1.30002 
1.95344 0.29436 0.16056 
1.95755 0.29523 -0.95127 
1.95303 -0.31592 0.16028 
1.95725 -0.31618 -0.95151 
1.76205 -0.01045 0.65399 
1.76918 -0.01023 -1.44551 
1.05428 -1.77118 -0.39703 
1.40077 -1.21649 -1.29648 
0.56079 -1.96028 -0.70316 
0.90655 -1.40514 -1.60281 
1.39464 -1.21307 0.50297 
0.55940 -1.95763 -0.09205 
0.90028 -1.39911 0.80830 
1.20621 -0.90753 0.99781 
1.21262 -0.91060 -1.79051 
-0.55118 -1.95962 -0.70388 
-0.55096 -1.95680 -0.09202 
0.00672 -1.06072 -2.16005 
0.31277 -0.56610 -2.34748 
-0.89468 -1.40488 -1.60531 
-0.29847 -0.56609 -2.34876 
-1.20003 -0.91054 -1.79438 
-1.04436 -1.77008 -0.39788 
-1.38900 -1.21618 -1.29984 
0.00561 -1.06058 1.37706 
0.31915 -0.56066 1.60635 
-0.89173 -1.39831 0.81270 
-0.28584 -0.56103 1.61565 
-1.19487 -0.90852 1.00380 
-1.38441 -1.21320 0.50510 
-1.75183 -0.01425 0.65155 
-1.94233 0.29138 0.15642 
-1.94169 -0.31818 0.15763 
-1.75683 -0.01073 -1.45090 
-1.94557 0.29394 -0.95650 
-1.94513 -0.31687 -0.95619 
0.00512 1.85540 0.43541 
0.26558 1.75488 0.59687 
0.16654 1.59167 0.85753 
-0.15480 1.59113 0.85670 
-0.25490 1.75413 0.59581 
0.00572 1.86362 -1.23257 
0.26709 1.76406 -1.39328 
0.16770 1.60272 -1.65417 
-0.15510 1.60266 -1.65478 
-0.25523 1.76390 -1.39422 
1.61675 1.24618 -0.23408 
1.61780 1.24695 -0.55649 
1.87819 0.82436 -0.39507 
1.77755 0.98505 -0.13431 
1.77933 0.98610 -0.65596 
1.87711 -0.84546 -0.39563 
1.61637 -1.26752 -0.55731 
1.61513 -1.26695 -0.23488 
1.77619 -1.00616 -0.13498 
1.77820 -1.00689 -0.65664 
0.26649 -1.78360 -1.39447 
0.00526 -1.88303 -1.23347 
0.16718 -1.62236 -1.65552 
-0.15549 -1.62229 -1.65598 
-0.25553 -1.78344 -1.39511 
0.26330 -1.77573 0.59853 
0.00343 -1.87568 0.43752 
0.16378 -1.61391 0.86013 
-0.15751 -1.61374 0.86091 
-0.25665 -1.77543 0.59927 
1.00484 0.24998 1.39290 
1.25904 0.14996 1.22332 
1.26041 -0.16865 1.22185 
1.00854 -0.26941 1.38922 
0.83949 -0.01003 1.50949 
-0.99558 0.24613 1.38352 
-0.99468 -0.27437 1.39007 
-0.83294 -0.01536 1.49929 
-1.25071 0.14625 1.21729 
-1.25017 -0.17414 1.22062 
1.00362 0.25125 -2.16794 
1.26449 0.15145 -2.00654 
1.26443 -0.17121 -2.00676 
1.00353 -0.27077 -2.16832 
0.84236 -0.00969 -2.26791 
-0.98972 0.25124 -2.17205 
-0.98976 -0.27078 -2.17229 
-0.82818 -0.00968 -2.27143 
-1.25111 0.15137 -2.01140 
-1.25110 -0.17126 -2.01152 
-1.60578 1.24371 -0.23886 
-1.60665 1.24485 -0.56124 
-1.76645 0.98237 -0.13928 
-1.76791 0.98406 -0.66098 
-1.86680 0.82196 -0.40010 
-1.60491 -1.26707 -0.55965 
-1.60393 -1.26655 -0.23648 
-1.76474 -1.00635 -0.13689 
-1.76641 -1.00680 -0.65967 
-1.86532 -0.84573 -0.39849 
0.00494 2.01885 -0.10825 
0.00519 2.02176 -0.68811 
0.28963 2.01474 -0.24938 
-0.27965 2.01419 -0.25036 
0.28992 2.01616 -0.54591 
-0.27968 2.01570 -0.54688 
0.78482 1.71808 0.37543 
1.25451 1.54155 0.08670 
0.80955 1.81449 0.07300 
0.98375 1.52701 0.53409 
1.04986 1.72398 -0.07468 
1.22383 1.43704 0.38615 
0.48797 1.23156 1.16036 
0.77393 0.76726 1.35318 
0.78353 1.20180 1.05912 
0.33060 1.02900 1.34924 
0.93059 0.96477 1.15324 
0.46911 0.78126 1.46328 
-0.47543 1.23086 1.15417 
-0.76507 0.76409 1.34015 
-0.31828 1.02926 1.34093 
-0.77239 1.20054 1.05154 
-0.46260 0.78173 1.44610 
-0.92043 0.96266 1.14380 
-0.77435 1.71634 0.37230 
-1.24396 1.53921 0.08242 
-0.79930 1.81282 0.07013 
-0.97308 1.52498 0.52970 
-1.03945 1.72202 -0.07823 
-1.21328 1.43465 0.38143 
0.78760 1.72440 -1.16932 
1.25713 1.54469 -0.87849 
0.81130 1.81834 -0.86659 
1.05134 1.72636 -0.71785 
0.98803 1.53392 -1.32663 
1.22815 1.44210 -1.17796 
0.48991 1.24139 -1.95020 
0.78038 0.77169 -2.12867 
0.78957 1.21200 -1.84695 
0.32897 1.03596 -2.13212 
0.93810 0.97179 -1.93822 
0.47752 0.79580 -2.22337 
-0.47643 1.24132 -1.95215 
-0.76645 0.77167 -2.13190 
-0.31490 1.03596 -2.13348 
-0.77645 1.21184 -1.85001 
-0.46320 0.79582 -2.22540 
-0.92475 0.97166 -1.94191 
-0.77621 1.72373 -1.17201 
-1.24600 1.54331 -0.88248 
-0.80043 1.81739 -0.86928 
-1.04054 1.72499 -0.72124 
-0.97625 1.53325 -1.33004 
-1.21659 1.44111 -1.18201 
2.03710 0.27950 -0.39517 
2.03671 -0.30090 -0.39538 
2.03050 0.13753 -0.11080 
2.03263 0.13785 -0.67976 
2.03029 -0.15909 -0.11091 
2.03246 -0.15906 -0.67987 
1.73504 0.76063 0.38549 
1.55337 0.47050 0.85559 
1.54362 0.91725 0.58555 
1.45073 0.76870 0.82631 
1.82899 0.45844 0.40929 
1.73603 0.31030 0.64912 
1.74059 0.76322 -1.17606 
1.56150 0.47301 -1.64536 
1.55027 0.92122 -1.37615 
1.45867 0.77279 -1.61610 
1.83482 0.46012 -1.20010 
1.74327 0.31174 -1.44010 
1.25584 -1.56469 -0.87953 
0.78665 -1.74405 -1.17049 
1.04992 -1.74608 -0.71879 
1.22715 -1.46210 -1.17912 
0.81011 -1.83786 -0.86755 
0.98715 -1.55376 -1.32791 
1.25254 -1.56208 0.08583 
0.78260 -1.73858 0.37516 
1.04791 -1.74395 -0.07539 
1.22198 -1.45817 0.38507 
0.80755 -1.83430 0.07262 
0.98172 -1.54835 0.53313 
1.73419 -0.78208 0.38463 
1.55391 -0.49128 0.85408 
1.82852 -0.47988 0.40872 
1.73597 -0.33134 0.64850 
1.54293 -0.93881 0.58416 
1.45107 -0.79020 0.82423 
1.73997 -0.78376 -1.17674 
1.56124 -0.49319 -1.64592 
1.83445 -0.48078 -1.20052 
1.74306 -0.33218 -1.44043 
1.54965 -0.94150 -1.37706 
1.45825 -0.79291 -1.61698 
0.00464 -2.04077 -0.68825 
0.00404 -2.03789 -0.10745 
0.28895 -2.03514 -0.54616 
0.28844 -2.03372 -0.24926 
-0.27988 -2.03474 -0.54644 
-0.27997 -2.03328 -0.24935 
0.48943 -1.26102 -1.95167 
0.78008 -0.79123 -2.12975 
0.78906 -1.23174 -1.84836 
0.93769 -0.99151 -1.93946 
0.32858 -1.05546 -2.13346 
0.47722 -0.81522 -2.22449 
-0.47672 -1.26095 -1.95328 
-0.76662 -0.79121 -2.13266 
-0.31523 -1.05543 -2.13465 
-0.77657 -1.23161 -1.85086 
-0.46346 -0.81520 -2.22633 
-0.92484 -0.99145 -1.94263 
-0.77587 -1.74351 -1.17213 
-1.24483 -1.56394 -0.88168 
-0.79988 -1.83710 -0.86884 
-0.97583 -1.55331 -1.33022 
-1.03954 -1.74515 -0.72026 
-1.21579 -1.46158 -1.18177 
0.48628 -1.25654 1.15899 
0.78022 -0.79267 1.34464 
0.78316 -1.22608 1.05590 
0.93275 -0.98885 1.14806 
0.33023 -1.05634 1.34690 
0.47705 -0.81211 1.45253 
-0.47777 -1.25527 1.16415 
-0.76382 -0.79134 1.35481 
-0.31873 -1.05465 1.35240 
-0.77377 -1.22495 1.06236 
-0.45889 -0.80985 1.46205 
-0.92074 -0.98809 1.15633 
-0.77458 -1.73767 0.37653 
-1.24267 -1.56117 0.08613 
-0.79896 -1.83327 0.07302 
-1.03847 -1.74282 -0.07545 
-0.97314 -1.54753 0.53565 
-1.21242 -1.45753 0.38681 
0.15520 -0.50794 1.81674 
-0.11543 -0.48990 2.15076 
0.50759 0.11955 1.92352 
0.39569 -0.39427 2.51350 
-0.32927 -0.33554 1.87856 
-0.46586 -0.14680 2.11175 
-1.54408 0.46716 0.85018 
-1.72453 0.75755 0.38042 
-1.44105 0.76590 0.81998 
-1.53341 0.91441 0.57992 
-1.72604 0.30666 0.64513 
-1.81845 0.45514 0.40488 
[...]
CELL_DATA 2191
SCALARS Strain double 
LOOKUP_TABLE default 
-0.08621
-0.09052
-0.08568
-0.08833
-0.08919
-0.08830
-0.08697
-0.08791
-0.08753
-0.08726
-0.08818
-0.08755
-0.08774
-0.08790
-0.08821
-0.08795
-0.08787
-0.08823
-0.08806
-0.08809
-0.08744
-0.08780
-0.08770
-0.08766
-0.08754
-0.08965
-0.08562
-0.08879
-0.08655
-0.09124
-0.09959
-0.07539
-0.07022
-0.10217
-0.06998
-0.09678
-0.09182
-0.07782
-0.07756
-0.08387
-0.08749
-0.08754
-0.08767
-0.08741
-0.08752
-0.08740
-0.08755
-0.08750
-0.08771
-0.08736
-0.08848
-0.08741
-0.08768
-0.08835
-0.08796
-0.08885
-0.08781
-0.08678
-0.08623
-0.08948
-0.03482
-0.03510
0.06972
0.06857
0.06876
0.06979
-0.03710
-0.03612
0.06965
0.07223
0.07022
0.06861
-0.02383
-0.05088
0.09227
0.04135
0.07266
0.11266
-0.02699
-0.04284
0.05046
0.08143
0.09343
0.07135
-0.03566
-0.03529
0.06827
0.07057
0.06943
0.06771
-0.03341
-0.03350
0.06923
0.06850
0.06861
0.06941
-0.03421
-0.03413
0.06922
0.06992
0.06986
0.06938
-0.03396
-0.03394
0.06993
0.06902
0.06918
0.06991
-0.03377
-0.03380
0.06973
0.06837
0.06845
0.06967
-0.03411
-0.03415
0.06876
0.06870
0.06868
0.06873
-0.03277
-0.03199
0.06580
0.07058
0.07033
0.06546
-0.03468
-0.03453
0.06993
0.06947
0.06925
0.07003
-0.03402
-0.03395
0.06895
0.06928
0.06917
0.06892
-0.03557
-0.03603
0.06981
0.06719
0.06766
0.07044
-0.03382
-0.03299
0.06851
0.06664
0.06715
0.06766
-0.03467
-0.03459
0.06934
0.06993
0.06977
0.06956
-0.03365
-0.03321
0.06874
0.06794
0.06813
0.06854
-0.03411
-0.03405
0.06916
0.06988
0.06990
0.06927
-0.03412
-0.03410
0.06976
0.06949
0.06950
0.06966
-0.03449
-0.03472
0.06878
0.06996
0.07042
0.06894
-0.02801
-0.04246
0.07692
0.07238
0.05288
0.08585
-0.02843
-0.04939
0.04912
0.08628
0.09921
0.07191
-0.03804
-0.03677
0.06782
0.07310
0.07459
0.06630
-0.09523
-0.00252
0.20598
0.01862
0.08660
-0.03315
-0.03337
0.06827
0.06737
0.06714
0.06777
-0.03321
-0.03281
0.07244
0.06281
0.06362
0.07263
-0.03394
-0.03394
0.06959
0.06944
0.06945
0.06959
-0.03466
-0.03477
0.06989
0.06963
0.06962
0.06992
-0.03358
-0.03338
0.06909
0.06917
0.06930
0.06887
-0.03528
-0.03563
0.06817
0.07108
0.07059
0.06842
-0.06506
-0.04514
0.07936
0.07768
0.03225
0.03353
-0.06881
-0.04815
0.07973
0.08191
0.03498
0.03467
-0.06265
-0.04112
0.08304
0.07428
0.02795
0.03708
-0.06701
-0.04713
0.07627
0.08369
0.03901
0.03293
-0.06712
-0.04633
0.07750
0.08195
0.03475
0.03172
-0.06658
-0.04601
0.07966
0.08041
0.03479
0.03404
-0.06490
-0.04421
0.07964
0.07909
0.03319
0.03396
-0.06588
-0.04513
0.07938
0.08047
0.03477
0.03398
-0.06552
-0.04482
0.08043
0.07909
0.03368
0.03466
-0.06527
-0.04460
0.08027
0.07884
0.03306
0.03443
-0.06656
-0.04634
0.07949
0.07922
0.03411
0.03480
-0.06536
-0.04448
0.07897
0.07967
0.03368
0.03324
-0.06573
-0.04499
0.07920
0.07922
0.03346
0.03340
-0.06562
-0.04436
0.07862
0.07931
0.03341
0.03261
-0.06632
-0.04562
0.07997
0.07946
0.03416
0.03454
-0.06590
-0.04509
0.07913
0.07915
0.03338
0.03340
-0.06577
-0.04496
0.07921
0.07944
0.03358
0.03349
-0.06655
-0.04615
0.07944
0.07864
0.03318
0.03402
-0.06604
-0.04512
0.07907
0.07845
0.03266
0.03301
-0.06619
-0.04554
0.07939
0.07970
0.03433
0.03407
-0.06544
-0.04476
0.07965
0.07939
0.03373
0.03399
-0.06573
-0.04483
0.07956
0.07947
0.03373
0.03374
-0.06572
-0.04500
0.07946
0.08019
0.03456
0.03394
-0.06567
-0.04498
0.08011
0.07963
0.03401
0.03433
-0.06568
-0.04515
0.07955
0.07973
0.03430
0.03395
-0.06751
-0.04677
0.07678
0.08142
0.03513
0.03132
-0.06378
-0.04355
0.07679
0.07842
0.03269
0.03124
-0.06754
-0.04676
0.08159
0.07672
0.03209
0.03488
-0.06451
-0.04406
0.07472
0.08268
0.03564
0.02797
-0.06984
-0.04925
0.07865
0.08298
0.03693
0.03330
-0.05904
-0.05002
0.08840
0.06920
0.03907
0.04991
-0.06200
-0.04218
0.08376
0.07344
0.02958
0.03828
-0.05939
-0.04222
0.07477
0.07449
0.03267
0.03335
-0.05638
-0.03706
0.07394
0.07326
0.03046
0.02698
-0.03093
-0.05770
0.13636
0.14479
0.02557
0.02608
-0.06145
-0.04567
0.07842
0.08128
0.03767
0.03600
-0.05881
-0.05206
0.05994
0.08960
0.05473
0.03357
-0.04602
0.12951
0.09420
0.02509
0.02528
-0.06288
-0.04356
0.07841
0.07675
0.03237
0.03260
-0.06644
-0.04482
0.08510
0.07491
0.02841
0.03856
-0.06552
-0.04490
0.07986
0.07981
0.03401
0.03428
-0.06570
-0.04520
0.07973
0.08013
0.03442
0.03394
-0.06584
-0.04531
0.08012
0.07987
0.03408
0.03441
-0.06544
-0.04482
0.07997
0.07964
0.03386
0.03434
-0.06549
-0.04479
0.07989
0.07972
0.03409
0.03422
-0.06542
-0.04476
0.07963
0.08005
0.03436
0.03385
-0.06558
-0.04492
0.07995
0.07980
0.03426
0.03429
-0.06548
-0.04479
0.07973
0.07996
0.03428
0.03412
-0.06589
-0.04536
0.08007
0.07996
0.03435
0.03448
-0.06532
-0.04456
0.07962
0.07987
0.03412
0.03378
-0.06662
-0.04600
0.07915
0.07925
0.03371
0.03398
-0.06538
-0.04467
0.07883
0.07952
0.03384
0.03316
-0.06546
-0.04448
0.07900
0.07824
0.03256
0.03289
-0.06642
-0.04570
0.07955
0.08016
0.03452
0.03397
-0.06621
-0.04581
0.07841
0.08032
0.03490
0.03304
-0.06676
-0.04583
0.08158
0.07879
0.03309
0.03526
-0.06636
-0.04652
0.08239
0.07624
0.03189
0.03742
-0.06444
-0.04359
0.07539
0.08167
0.03509
0.02988
-0.06438
-0.04397
0.07881
0.07894
0.03337
0.03322
-0.06764
-0.04679
0.08169
0.07903
0.03351
0.03559
0.07219
0.07222
0.01883
0.02036
0.01660
0.01587
0.07091
0.07081
0.01996
0.02019
0.01649
0.01687
0.07144
0.07158
0.02109
0.01940
0.01629
0.01788
0.07234
0.07231
0.02030
0.01931
0.01622
0.01707
0.07816
0.08405
0.02144
0.01267
0.01434
0.01318
0.07165
0.07114
0.02076
0.01968
0.01614
0.01780
0.06991
0.06887
0.02253
0.01940
0.01563
0.02124
0.07646
0.08606
0.02229
0.02583
0.02267
0.01437
0.07430
0.07377
0.02762
0.01472
0.01157
0.02329
0.15526
-0.02442
0.09677
0.02550
0.10342
0.02498
0.07803
0.07493
0.01655
0.01880
0.01295
0.01598
0.12244
-0.16846
0.05471
0.02516
0.10188
0.02494
0.07295
0.07195
0.02241
0.01734
0.01305
0.01893
0.07129
0.07096
0.02011
0.02014
0.01690
0.01702
0.06981
0.06973
0.02087
0.01911
0.01616
0.01835
0.07131
0.07153
0.02037
0.02103
0.01778
0.01731
0.07211
0.07229
0.01966
0.02070
0.01768
0.01664
0.07247
0.07247
0.02041
0.02015
0.01708
0.01731
0.07227
0.07214
0.02017
0.02069
0.01742
0.01681
0.07199
0.07206
0.02066
0.02038
0.01716
0.01752
0.07134
0.07114
0.02094
0.02068
0.01749
0.01774
0.07181
0.07189
0.02069
0.02057
0.01736
0.01753
0.07240
0.07239
0.02002
0.02067
0.01749
0.01669
0.07214
0.07213
0.01958
0.02086
0.01771
0.01654
0.07155
0.07212
0.01981
0.01895
0.01591
0.01667
0.07133
0.07154
0.01974
0.02096
0.01782
0.01669
0.07124
0.07124
0.01978
0.01905
0.01595
0.01695
0.07137
0.07160
0.01973
0.02083
0.01777
0.01664
0.06855
0.06903
0.02231
0.01941
0.01658
0.01772
0.07256
0.07253
0.02010
0.02023
0.01686
0.01677
0.07162
0.07190
0.01970
0.01967
0.01665
0.01632
0.07193
0.07211
0.01982
0.02060
0.01756
0.01670
0.07157
0.07144
0.02016
0.01997
0.01673
0.01719
0.07147
0.07156
0.02036
0.02086
0.01765
0.01728
0.06958
0.06965
0.02060
0.01898
0.01561
0.01758
0.07020
0.07029
0.02103
0.01920
0.01618
0.01749
0.07390
0.07561
0.01854
0.01621
0.01557
0.01326
0.06992
0.07053
0.01952
0.01928
0.01732
0.01499
0.07223
0.07233
0.02065
0.02007
0.01679
0.01738
0.07086
0.07107
0.01988
0.02098
0.01829
0.01652
0.07088
0.07072
0.01780
0.02267
0.01887
0.01493
0.07239
0.07234
0.02033
0.02038
0.01726
0.01721
0.07186
0.07192
0.02069
0.02052
0.01731
0.01752
0.07205
0.07219
0.02051
0.02030
0.01715
0.01716
0.07205
0.07208
0.02064
0.02044
0.01724
0.01750
0.07201
0.07182
0.02064
0.02039
0.01718
0.01756
0.07361
0.07450
0.01902
0.01898
0.01627
0.01533
0.07153
0.07160
0.02118
0.01991
0.01696
0.01774
0.08248
0.08011
0.01942
0.02097
0.01803
0.01258
0.11021
0.03052
0.06302
0.02526
0.09228
0.02580
0.08246
0.07916
0.01262
0.01941
0.01140
0.01374
0.12808
-0.07514
0.08682
0.02503
0.07379
0.02532
0.07453
0.07470
0.02482
0.01275
0.00924
0.02274
0.06690
0.06551
0.02466
0.02038
0.01578
0.02236
0.06907
0.06775
0.01841
0.02331
0.01937
0.01555
0.07015
0.07036
0.01879
0.02159
0.01885
0.01507
0.07474
0.07417
0.01682
0.01961
0.01603
0.01439
0.07205
0.07193
0.02089
0.01994
0.01662
0.01786
0.07254
0.07276
0.02021
0.01953
0.01649
0.01690
0.07121
0.07108
0.01970
0.02153
0.01807
0.01672
0.07075
0.06860
-0.00830
-0.00686
0.07270
-0.00467
-0.00473
0.06688
-0.01030
-0.00499
0.07402
-0.00176
-0.00802
-0.00456
-0.00796
0.07096
0.07154
-0.00507
-0.00562
0.07053
-0.00661
-0.00601
0.07171
-0.00507
-0.00588
0.07025
-0.00622
-0.00526
-0.00672
-0.00553
0.07042
0.07070
-0.00571
-0.00575
0.07085
-0.00632
-0.00657
0.07041
0.07068
-0.00622
-0.00647
-0.00660
-0.00641
-0.00572
-0.00561
0.07041
0.07052
-0.00639
-0.00641
0.07050
0.07061
-0.00641
-0.00638
0.07032
-0.00631
-0.00612
-0.00660
-0.00668
-0.00584
-0.00594
0.07095
0.07074
-0.00606
-0.00589
0.07097
-0.00582
-0.00592
0.07130
-0.00544
-0.00591
0.07083
-0.00591
-0.00562
-0.00584
-0.00585
0.06784
0.07339
-0.00409
-0.00847
0.06995
-0.00752
-0.00932
0.06669
-0.00834
-0.00391
0.07290
-0.00573
-0.01096
-0.00341
-0.00574
0.06748
0.09380
-0.00746
-0.02087
0.05783
-0.00617
-0.00084
0.05828
-0.00735
-0.00428
0.10275
-0.00575
-0.03293
-0.02760
-0.03212
0.09226
0.06398
-0.01896
-0.00620
0.07670
0.07085
-0.01303
-0.01225
-0.02437
-0.01013
0.06378
-0.00519
-0.00821
-0.00611
-0.00204
0.07100
0.07114
-0.00580
-0.00569
0.07126
-0.00558
-0.00592
0.07111
-0.00577
-0.00554
0.07097
-0.00595
-0.00565
-0.00576
-0.00564
0.07095
0.07124
-0.00561
-0.00597
0.07124
0.07097
-0.00569
-0.00555
-0.00559
-0.00576
0.07116
-0.00556
-0.00548
-0.00573
-0.00600
0.07033
0.07084
-0.00580
-0.00602
0.07050
-0.00640
-0.00665
0.06979
-0.00712
-0.00649
0.07128
-0.00544
-0.00609
-0.00542
-0.00676
0.07294
0.06981
-0.00664
-0.00439
0.06801
-0.00771
-0.00368
0.07249
-0.00545
-0.00888
0.07038
-0.00674
-0.00719
-0.00571
-0.00429
0.05504
0.05619
0.07708
0.07572
0.05680
0.05584
0.07686
0.07777
-0.01549
-0.01648
0.04861
-0.01552
-0.01652
0.04961
-0.01705
0.05008
-0.01709
0.04906
0.05704
0.05647
0.07734
0.07953
0.05620
0.05789
0.07739
0.07641
-0.01651
-0.01818
0.04939
-0.01726
-0.02066
0.04751
-0.01735
0.04996
-0.01775
0.05342
0.04192
0.05759
0.08224
0.07145
0.06825
0.07703
0.08517
0.08059
-0.02262
-0.01243
0.04766
0.01557
-0.00967
0.03297
-0.02318
0.05995
-0.05439
-0.00577
0.05102
0.04798
0.07892
0.07827
0.06567
0.06095
0.07915
0.07981
0.01336
-0.01697
0.02287
-0.02063
-0.01569
0.04906
-0.03307
0.00842
-0.01992
0.05361
0.05637
0.05456
0.07539
0.07829
0.05539
0.05657
0.07679
0.07608
-0.01553
-0.01693
0.04905
-0.01603
-0.01831
0.04666
-0.01674
0.04893
-0.01729
0.05092
0.05529
0.05617
0.07702
0.07640
0.05594
0.05538
0.07628
0.07713
-0.01396
-0.01530
0.04861
-0.01549
0.04902
-0.01403
-0.01535
0.04964
-0.01555
0.04886
0.05680
0.05614
0.07689
0.07780
0.05609
0.05657
0.07743
0.07717
-0.01460
-0.01609
0.05006
-0.01473
-0.01621
0.04959
-0.01591
0.04925
-0.01606
0.04995
0.05590
0.05678
0.07777
0.07664
0.05662
0.05592
0.07699
0.07755
-0.01450
-0.01594
0.04937
-0.01442
-0.01582
0.05008
-0.01587
0.04997
-0.01580
0.04909
0.05516
0.05656
0.07762
0.07620
0.05630
0.05527
0.07615
0.07721
-0.01452
-0.01588
0.04849
-0.01596
0.04964
-0.01419
-0.01556
0.04984
-0.01561
0.04874
0.05549
0.05553
0.07658
0.07649
0.05550
0.05550
0.07648
0.07649
-0.01519
-0.01662
0.04883
-0.01426
-0.01565
0.04894
-0.01665
0.04901
-0.01574
0.04890
0.05617
0.05360
0.07487
0.07718
0.05153
0.05857
0.08004
0.07188
-0.01141
-0.01405
0.04943
-0.01201
0.04494
-0.01453
-0.01609
0.04714
-0.01611
0.05050
0.05629
0.05682
0.07760
0.07695
0.05668
0.05607
0.07717
0.07768
-0.01513
-0.01667
0.04981
-0.01636
0.04992
-0.01511
-0.01664
0.05021
-0.01633
0.04922
0.05585
0.05566
0.07664
0.07695
0.05580
0.05612
0.07700
0.07672
-0.01478
-0.01628
0.04903
-0.01433
-0.01582
0.04903
-0.01612
0.04926
-0.01567
0.04955
0.05483
0.05654
0.07714
0.07553
0.05678
0.05403
0.07476
0.07808
-0.01600
-0.01711
0.04841
-0.01632
-0.01749
0.05020
-0.01748
0.04977
-0.01866
0.04646
0.05412
0.05491
0.07640
0.07525
0.05508
0.05421
0.07366
0.07437
-0.01443
-0.01634
0.04748
-0.01492
0.04872
-0.01425
-0.01588
0.04791
-0.01563
0.04737
0.05666
0.05631
0.07696
0.07738
0.05620
0.05659
0.07763
0.07731
-0.01516
-0.01664
0.05013
-0.01643
0.04932
-0.01514
-0.01660
0.04983
-0.01644
0.04981
0.05539
0.05563
0.07676
0.07646
0.05520
0.05419
0.07491
0.07599
-0.01427
-0.01599
0.04860
-0.01525
0.04874
-0.01363
-0.01549
0.04877
-0.01449
0.04778
0.05673
0.05607
0.07688
0.07766
0.05597
0.05660
0.07751
0.07701
-0.01457
-0.01604
0.05002
-0.01588
0.04920
-0.01460
-0.01605
0.04948
-0.01594
0.04995
0.05623
0.05649
0.07753
0.07714
0.05648
0.05637
0.07731
0.07732
-0.01463
-0.01605
0.04960
-0.01464
-0.01606
0.04968
-0.01600
0.04988
-0.01602
0.04974
0.05680
0.05594
0.07676
0.07739
0.05535
0.05709
0.07861
0.07645
-0.01529
-0.01648
0.05063
-0.01495
-0.01615
0.04934
-0.01698
0.04837
-0.01657
0.05007
0.04830
0.04854
0.07605
0.07770
0.05195
0.07033
0.07544
0.06056
-0.01989
-0.01586
0.04880
-0.01565
0.04929
0.00901
-0.01606
0.02330
-0.03400
0.01384
0.05504
0.04407
0.07335
0.08080
0.07495
0.06411
0.07601
0.08619
0.00480
-0.01501
0.03286
-0.02338
-0.01510
0.04705
-0.04792
0.01442
-0.02485
0.05821
0.05956
0.05459
0.07589
0.08138
0.05410
0.06065
0.08044
0.07359
-0.01742
-0.01928
0.05205
-0.01800
0.04826
-0.01787
-0.02142
0.04529
-0.01773
0.05540
-0.09247
-0.10624
0.06846
0.17034
0.04347
-0.08309
-0.03452
0.08362
0.07328
0.02726
0.07834
0.15894
0.05393
0.05469
0.07630
0.07448
0.05477
0.05446
0.07573
0.07550
-0.01389
-0.01530
0.04659
-0.01553
0.04869
-0.01340
-0.01451
0.04767
-0.01508
0.04733
0.04931
0.06012
0.08151
0.07132
0.05811
0.05105
0.07154
0.07968
-0.01141
-0.01353
0.04206
-0.01292
0.05053
-0.01527
-0.01744
0.05258
-0.01615
0.04545
0.05623
0.05637
0.07731
0.07716
0.05640
0.05626
0.07717
0.07735
-0.01442
-0.01583
0.04953
-0.01582
0.04971
-0.01442
-0.01582
0.04969
-0.01583
0.04958
0.05649
0.05668
0.07757
0.07740
0.05670
0.05630
0.07722
0.07764
-0.01523
-0.01649
0.04983
-0.01675
0.05004
-0.01527
-0.01654
0.05012
-0.01678
0.04955
0.05617
0.05581
0.07695
0.07721
0.05572
0.05580
0.07660
0.07645
-0.01411
-0.01566
0.04943
-0.01529
0.04929
-0.01394
-0.01552
0.04897
-0.01510
0.04928
0.05748
0.05517
0.07581
0.07804
0.05521
0.05761
0.07909
0.07628
-0.01653
-0.01747
0.05132
-0.01842
0.04822
-0.01545
-0.01662
0.04868
-0.01710
0.05055
-0.01701
-0.01956
-0.01704
-0.01823
0.08549
0.08385
-0.02177
-0.01545
0.08967
-0.01203
-0.01705
0.08272
-0.01987
-0.01875
0.08742
-0.01823
-0.01649
-0.01829
-0.01706
0.08528
0.08606
-0.01652
-0.01739
0.08498
-0.01752
-0.01720
0.08614
-0.01702
-0.01674
0.08474
-0.01812
-0.01689
-0.01841
-0.01639
0.08494
0.08388
-0.01693
-0.01798
0.08572
-0.01789
-0.01753
-0.01693
-0.01793
0.08521
0.08502
-0.01797
-0.01779
-0.01709
-0.01788
0.08487
0.08503
-0.01761
-0.01808
-0.01717
-0.01783
0.08517
0.08549
-0.01843
-0.01735
0.08371
-0.01729
-0.01741
-0.01687
-0.01731
0.08525
0.08512
-0.01705
-0.01752
0.08496
-0.01731
-0.01730
0.08596
-0.01728
-0.01719
0.08554
-0.01880
-0.01600
-0.01931
-0.01986
0.08310
0.08623
-0.01518
-0.02069
0.08426
-0.01791
-0.01565
0.08422
-0.01720
-0.02263
0.09009
-0.02187
-0.01402
0.01628
-0.07333
0.09060
0.02572
-0.01814
-0.01466
0.08154
-0.01716
-0.01490
0.08257
0.02309
-0.08923
0.02778
0.00568
-0.05796
-0.01908
-0.01682
0.06096
0.08659
0.00521
-0.04075
-0.02266
-0.01716
0.03354
0.09127
-0.01520
-0.01961
0.08200
-0.01705
-0.01739
-0.01721
-0.01706
0.08565
0.08560
-0.01736
-0.01750
0.08602
-0.01752
-0.01702
0.08577
-0.01710
-0.01704
0.08544
-0.01705
-0.01704
-0.01699
-0.01755
0.08543
0.08589
-0.01719
-0.01707
-0.01720
-0.01695
0.08567
0.08549
-0.01760
-0.01684
0.08565
-0.01787
-0.01721
-0.01853
-0.01710
0.08467
0.08421
-0.01685
-0.01805
0.08554
-0.01659
-0.01829
0.08389
-0.01809
-0.01764
0.08612
-0.01859
-0.01851
-0.01801
-0.01620
0.08778
0.08486
-0.01776
-0.01459
0.08049
-0.01711
-0.02007
0.08790
-0.01602
-0.01852
0.08468
0.04879
0.04755
0.04757
0.04772
0.04839
0.04740
0.05521
0.04460
0.04778
0.11841
-0.04085
-0.04833
0.05094
0.04795
0.04501
0.04779
0.04853
0.04869
0.04871
0.04840
0.04820
0.04765
0.04880
0.04857
0.04827
0.04758
0.04614
0.04778
0.04785
0.04895
0.04822
0.04763
0.04724
0.04842
0.04784
0.04869
0.04556
0.04898
0.04669
0.04680
0.04732
0.05002
0.04867
0.04828
0.04839
0.04860
0.04824
0.04812
0.10718
-0.03866
-0.01994
0.05569
0.04795
0.04176
0.04527
0.04660
0.05064
0.04817
0.04903
0.04756
-0.08605
-0.06546
-0.13660
0.11995
0.09441
-0.04409
-0.10328
-0.07542
-0.02508
0.06420
0.02851
0.00133
-0.12277
-0.00986
0.01151
-0.22577
0.07514
-0.09770
0.11195
-0.09382
-0.09732
0.08929
0.08321
-0.03097
0.04933
0.13213
0.19662
0.13127
-0.00457
-0.00993
0.36276
0.01391
0.01775
-0.00364
0.25834
-0.19200
0.02246
0.06331
0.01469
0.04157
0.05525
-0.15508
0.06061
-0.10109
-0.02404
0.20721
0.31911
0.31595
0.20072
0.06774
-0.13799
-0.08130
-0.13308
0.13492
-0.09272
-0.00587
-0.09025
-0.14059
-0.10163
0.10015
0.17852
-0.12199
-0.01230
-0.00186
-0.11524
0.01872
0.18877
0.08767
0.01125
0.03334
0.15667
-0.08547
0.09088
-0.07525
-0.04775
-0.03915
0.08294
0.16110
0.13803
-0.10263
0.05201
-0.05365
0.08642
-0.01278
0.01005
-0.08112
-0.11340
-0.00392
0.00933
0.01602
0.02032
-0.11195
-0.12838
-0.06171
-0.02433
-0.02402
0.10728
-0.02461
0.02421
-0.05147
-0.08605
0.13715
-0.06924
-0.04261
0.41184
-0.02523
-0.05395
0.01893
0.00960
-0.11328
0.35339
-0.02248
-0.03691
0.02935
-0.11474
0.10571
-0.04927
-0.11696
0.18108
0.01195
-0.01295
-0.05026
-0.10593
-0.09213
0.16395
0.00652
0.09678
0.06983
-0.13818
0.06199
0.11805
-0.07934
-0.07733
0.00217
0.09402
0.01930
-0.05727
0.14978
-0.07700
-0.16025
-0.09778
0.10383
-0.00509
0.10071
-0.14820
0.05391
0.15303
0.16487
-0.07324
0.09258
-0.04062
0.14299
0.01158
0.02593
-0.08474
0.11556
0.07810
0.07845
-0.14674
0.09020
-0.01956
-0.06464
-0.03137
0.01424
0.16785
0.33219
-0.07682
0.21783
-0.04588
0.03746
0.04219
0.12145
-0.02840
0.04713
-0.01182
0.02460
-0.13484
-0.18281
0.06602
0.27865
-0.06313
0.02968
-0.03227
0.06517
0.03430
-0.04770
-0.10547
-0.15581
0.07720
-0.04018
-0.04276
-0.00132
0.07679
0.02237
-0.02386
0.19014
0.33412
0.01608
0.08811
0.04951
-0.06939
0.00724
0.18707
0.02215
0.28688
-0.20465
-0.19340
0.13074
0.33245
0.25591
0.00059
-0.00521
0.19642
-0.15003
-0.11865
-0.05105
0.00446
-0.03322
-0.01815
-0.08323
0.00860
0.09283
-0.04411
-0.11703
0.00290
0.00960
-0.08278
0.14312
0.26772
-0.10954
0.26614
0.11669
0.09268
-0.06792
0.03224
0.03011
-0.10058
0.24649
-0.00332
-0.11748
0.22557
-0.15221
-0.02170
0.11869
0.05452
0.01676
-0.05947
-0.05086
0.04768
-0.03814
-0.07251
0.06947
-0.17260
-0.07176
-0.13483
-0.07653
-0.14050
-0.07286
-0.01054
-0.05560
-0.03980
-0.04826
0.03456
-0.11463
-0.04036
-0.00495
-0.10978
-0.19564
-0.10232
-0.18600
-0.12439
-0.00929
-0.12358
-0.03257
-0.10968
-0.07337
-0.02853
-0.01991
0.10000
