# vtk DataFile Version 3.0
Point representing Sub_cellular elem model
ASCII

DATASET UNSTRUCTURED_GRID
POINTS 671 float
0.00079 1.73379 0.96096 
0.00342 1.73982 -1.19162 
1.74261 1.07481 -0.11129 
1.74273 -1.07672 -0.10860 
0.00351 -1.74351 -1.18880 
0.00072 -1.73722 0.96028 
1.06997 -0.00245 1.64913 
-1.07120 0.00064 1.63418 
1.08162 -0.00259 -1.85224 
-1.07169 -0.00232 -1.85689 
-1.73784 1.07454 -0.11672 
-1.74005 -1.07584 -0.11690 
0.00138 2.04937 -0.11534 
1.02545 1.65673 0.52033 
0.63453 1.01991 1.55214 
-0.62817 1.01806 1.55714 
-1.02227 1.65521 0.51885 
1.02913 1.65907 -0.74770 
0.63931 1.02403 -1.77361 
-0.62978 1.02410 -1.77613 
-1.02366 1.65874 -0.75100 
2.05385 -0.00101 -0.10938 
1.65718 0.63153 0.91503 
1.66471 0.63246 -1.13708 
1.02941 -1.66210 -0.74434 
1.02582 -1.65765 0.52393 
1.65574 -0.63273 0.91746 
1.66465 -0.63636 -1.13557 
0.00170 -2.05286 -0.11327 
0.63930 -1.02883 -1.77155 
-0.62981 -1.02868 -1.77453 
-1.02433 -1.66187 -0.74961 
0.62914 -1.01727 1.56010 
-0.63497 -1.02610 1.54261 
-1.02536 -1.65921 0.51676 
0.04850 0.49056 2.33847 
-1.65333 0.63345 0.91020 
-1.65746 -0.63140 0.90760 
0.00568 -0.00275 -2.16534 
-1.65762 0.63285 -1.14355 
-1.65797 -0.63573 -1.14295 
-2.04976 0.00011 -0.11735 
0.00077 1.96577 0.45603 
0.52290 1.76548 0.77965 
0.32393 1.44095 1.30341 
-0.32128 1.44054 1.30452 
-0.52097 1.76442 0.77947 
0.00238 1.96965 -0.68683 
0.52672 1.76998 -1.00935 
0.32787 1.44609 -1.53273 
-0.31949 1.44608 -1.53395 
-0.52056 1.76982 -1.01113 
1.44791 1.41621 0.21106 
1.45012 1.41687 -0.43583 
1.97271 0.57015 -0.11025 
1.77056 0.89308 0.41227 
1.77441 0.89346 -0.63446 
1.97271 -0.57212 -0.10874 
1.45039 -1.41940 -0.43260 
1.44811 -1.41747 0.21452 
1.77020 -0.89404 0.41475 
1.77445 -0.89640 -0.63228 
0.52691 -1.77339 -1.00617 
0.00256 -1.97295 -0.68410 
0.32792 -1.45032 -1.53005 
-0.31947 -1.45026 -1.53163 
-0.52067 -1.77331 -1.00886 
0.52349 -1.76728 0.78170 
0.00106 -1.96955 0.45697 
0.32353 -1.44213 1.30434 
-0.32259 -1.44458 1.29994 
-0.52241 -1.76902 0.77755 
0.89699 0.52148 1.67025 
1.41402 0.31958 1.33954 
1.41191 -0.32343 1.34228 
0.89026 -0.52194 1.67993 
0.56146 0.00784 1.92334 
-0.89232 0.52314 1.66621 
-0.90040 -0.52537 1.65450 
-0.56624 -0.00872 1.89784 
-1.41189 0.32407 1.33305 
-1.41517 -0.32024 1.32968 
0.90025 0.52097 -1.88325 
1.42328 0.32125 -1.55865 
1.42324 -0.32593 -1.55791 
0.90021 -0.52612 -1.88216 
0.57701 -0.00274 -2.08309 
-0.89017 0.52115 -1.88697 
-0.89021 -0.52589 -1.88618 
-0.56602 -0.00261 -2.08556 
-1.41461 0.32162 -1.56457 
-1.41470 -0.32551 -1.56414 
-1.44371 1.41522 0.20739 
-1.44509 1.41646 -0.44032 
-1.76613 0.89317 0.40708 
-1.76874 0.89367 -0.64067 
-1.96803 0.57062 -0.11707 
-1.44664 -1.41887 -0.43985 
-1.44693 -1.41751 0.20641 
-1.76957 -0.89316 0.40587 
-1.76975 -0.89553 -0.64030 
-1.96944 -0.57088 -0.11729 
0.55674 1.94741 0.19084 
-0.55438 1.94645 0.18979 
0.55823 1.94911 -0.42007 
-0.55425 1.94862 -0.42162 
0.89875 1.38879 1.09166 
1.05179 1.76012 -0.11356 
1.39257 1.20232 0.78751 
0.00022 1.04977 1.65377 
1.20326 0.89555 1.28273 
0.29809 0.55410 1.88040 
-0.89460 1.38779 1.09270 
-0.29749 0.53475 1.89200 
-1.19796 0.89734 1.28189 
-1.04800 1.75911 -0.11622 
-1.38807 1.20192 0.78512 
0.90450 1.39294 -1.31909 
1.39841 1.20425 -1.01241 
0.00498 1.04845 -1.87652 
1.21059 0.89825 -1.50657 
0.31105 0.55378 -2.06392 
-0.89692 1.39293 -1.32241 
-0.30018 0.55383 -2.06518 
-1.20213 0.89844 -1.51132 
-1.39180 1.20430 -1.01742 
1.94978 0.30446 0.44621 
1.95416 0.30402 -0.66632 
1.94955 -0.30569 0.44710 
1.95415 -0.30710 -0.66555 
1.75794 -0.00099 0.94067 
1.76645 -0.00201 -1.16057 
1.05242 -1.76230 -0.11001 
1.39842 -1.20777 -1.00970 
0.55877 -1.95203 -0.41690 
0.90452 -1.39687 -1.31623 
1.39143 -1.20242 0.79129 
0.55759 -1.94999 0.19365 
0.89726 -1.38828 1.09598 
1.19921 -0.89604 1.28850 
1.21052 -0.90269 -1.50458 
-0.55463 -1.95208 -0.42002 
-0.55523 -1.95062 0.19005 
0.00500 -1.05334 -1.87463 
0.31106 -0.55913 -2.06286 
-0.89711 -1.39665 -1.32061 
-0.30018 -0.55906 -2.06424 
-1.20231 -0.90234 -1.51015 
-1.04964 -1.76246 -0.11603 
-1.39239 -1.20728 -1.01631 
0.00124 -1.05120 1.65185 
0.29351 -0.53826 1.89352 
-0.89935 -1.39229 1.08609 
-0.31145 -0.56148 1.86257 
-1.20496 -0.89822 1.27387 
-1.39331 -1.20362 0.78147 
-1.75682 0.00193 0.93298 
-1.94624 0.30581 0.43927 
-1.94767 -0.30399 0.43879 
-1.75943 -0.00140 -1.16792 
-1.94854 0.30470 -0.67383 
-1.94892 -0.30618 -0.67371 
0.00070 1.86611 0.71962 
0.26097 1.76628 0.88089 
0.16175 1.60427 1.14200 
-0.15977 1.60402 1.14226 
-0.25936 1.76575 0.88090 
0.00291 1.87138 -0.95044 
0.26431 1.77174 -1.11120 
0.16517 1.61030 -1.37215 
-0.15753 1.61028 -1.37275 
-0.25779 1.77167 -1.11211 
1.61255 1.25554 0.04946 
1.61371 1.25575 -0.27305 
1.87420 0.83366 -0.11075 
1.77348 0.99470 0.14976 
1.77539 0.99490 -0.37207 
1.87425 -0.83559 -0.10860 
1.61392 -1.25798 -0.27003 
1.61271 -1.25712 0.05257 
1.77346 -0.99610 0.15235 
1.77550 -0.99733 -0.36961 
0.26445 -1.77530 -1.10818 
0.00303 -1.87482 -0.94759 
0.16526 -1.61423 -1.36934 
-0.15748 -1.61421 -1.37014 
-0.25777 -1.77527 -1.10950 
0.26136 -1.76893 0.88159 
0.00087 -1.86981 0.71978 
0.16168 -1.60682 1.14161 
-0.16040 -1.60765 1.14004 
-0.25996 -1.76992 0.87952 
0.99921 0.25727 1.67563 
1.25365 0.15666 1.50865 
1.25175 -0.16208 1.51107 
0.99450 -0.26085 1.68178 
0.82864 -0.00059 1.79594 
-0.99846 0.25983 1.66462 
-1.00162 -0.25988 1.65926 
-0.83101 -0.00206 1.77600 
-1.25324 0.16117 1.49880 
-1.25501 -0.15776 1.49647 
1.00167 0.25839 -1.88453 
1.26240 0.15883 -1.72272 
1.26238 -0.16380 -1.72236 
1.00164 -0.26360 -1.88397 
0.84051 -0.00268 -1.98416 
-0.99157 0.25863 -1.88875 
-0.99160 -0.26335 -1.88836 
-0.82999 -0.00248 -1.98777 
-1.25304 0.15915 -1.72807 
-1.25307 -0.16346 -1.72784 
-1.60803 1.25493 0.04481 
-1.60880 1.25539 -0.27803 
-1.76893 0.99447 0.14440 
-1.77024 0.99490 -0.37792 
-1.86942 0.83373 -0.11688 
-1.61075 -1.25727 -0.27793 
-1.61081 -1.25659 0.04435 
-1.77174 -0.99522 0.14376 
-1.77179 -0.99640 -0.37781 
-1.87131 -0.83449 -0.11713 
0.00100 2.02775 0.17489 
0.00185 2.02980 -0.40560 
0.28561 2.02335 0.03340 
-0.28318 2.02289 0.03280 
0.28621 2.02431 -0.26337 
-0.28292 2.02398 -0.26410 
0.78045 1.72882 0.65830 
1.25028 1.55148 0.36966 
0.80513 1.82418 0.35578 
0.97989 1.53834 0.81666 
1.04551 1.73337 0.20807 
1.21999 1.44779 0.66904 
0.48489 1.24606 1.43977 
0.77442 0.77921 1.62783 
0.78161 1.21497 1.33861 
0.32770 1.04617 1.62451 
0.92984 0.97644 1.43184 
0.47046 0.80003 1.73107 
-0.48085 1.24508 1.44282 
-0.76801 0.77928 1.62971 
-0.32439 1.04396 1.62865 
-0.77635 1.21417 1.34154 
-0.46436 0.79368 1.73846 
-0.92371 0.97717 1.43371 
-0.77794 1.72737 0.65765 
-1.24653 1.55015 0.36710 
-0.80253 1.82281 0.35445 
-0.97645 1.53694 0.81621 
-1.04221 1.73202 0.20590 
-1.21607 1.44657 0.66728 
0.78437 1.73220 -0.88701 
1.25337 1.55285 -0.59572 
0.80767 1.82633 -0.58418 
1.04745 1.73457 -0.43526 
0.98494 1.54169 -1.04422 
1.22480 1.45002 -0.89526 
0.48759 1.24876 -1.66807 
0.77830 0.77889 -1.84607 
0.78715 1.21946 -1.56467 
0.32683 1.04316 -1.84988 
0.93580 0.97919 -1.65570 
0.47548 0.80290 -1.94090 
-0.47858 1.24879 -1.66994 
-0.76840 0.77901 -1.84922 
-0.31698 1.04320 -1.85117 
-0.77854 1.21951 -1.56768 
-0.46518 0.80297 -1.94281 
-0.92675 0.97931 -1.65939 
-0.77857 1.73195 -0.88959 
-1.24816 1.55245 -0.59966 
-0.80294 1.82586 -0.58660 
-1.04291 1.73394 -0.43829 
-0.97843 1.54156 -1.04763 
-1.21869 1.44987 -0.89943 
2.03341 0.28908 -0.10980 
2.03340 -0.29109 -0.10902 
2.02688 0.14749 0.17501 
2.02912 0.14710 -0.39432 
2.02683 -0.14904 0.17543 
2.02912 -0.14966 -0.39393 
1.73151 0.77085 0.67000 
1.55013 0.47950 1.14021 
1.54049 0.92767 0.86932 
1.44811 0.77858 1.10972 
1.82541 0.46849 0.69461 
1.73237 0.31981 0.93480 
1.73730 0.77146 -0.89217 
1.55893 0.48081 -1.36156 
1.54724 0.92917 -1.09278 
1.45601 0.78054 -1.33279 
1.83165 0.46848 -0.91569 
1.74045 0.31985 -1.15572 
1.25366 -1.55565 -0.59239 
0.78461 -1.73543 -0.88372 
1.04792 -1.73720 -0.43178 
1.22493 -1.45328 -0.89214 
0.80811 -1.82922 -0.58080 
0.98506 -1.54516 -1.04107 
1.25054 -1.55248 0.37334 
0.78098 -1.72997 0.66139 
1.04615 -1.73500 0.21165 
1.21964 -1.44805 0.67287 
0.80592 -1.82596 0.35900 
0.97961 -1.53849 0.82040 
1.73065 -0.77166 0.67241 
1.54821 -0.48176 1.14281 
1.82475 -0.46964 0.69610 
1.73156 -0.32159 0.93604 
1.53890 -0.92816 0.87265 
1.44548 -0.77964 1.11361 
1.73727 -0.77489 -0.89031 
1.55886 -0.48513 -1.36042 
1.83161 -0.47202 -0.91453 
1.74040 -0.32384 -1.15494 
1.54719 -0.93291 -1.09061 
1.45593 -0.78474 -1.33099 
0.00211 -2.03313 -0.40315 
0.00134 -2.03143 0.17645 
0.28674 -2.02745 -0.26065 
0.28626 -2.02652 0.03581 
-0.28298 -2.02754 -0.26231 
-0.28331 -2.02676 0.03403 
0.48761 -1.25329 -1.66565 
0.77827 -0.78390 -1.84447 
0.78714 -1.22385 -1.56218 
0.93576 -0.98383 -1.65363 
0.32684 -1.04805 -1.84790 
0.47548 -0.80802 -1.93933 
-0.47858 -1.25319 -1.66796 
-0.76844 -0.78371 -1.84801 
-0.31697 -1.04798 -1.84941 
-0.77862 -1.22367 -1.56591 
-0.46519 -0.80791 -1.94149 
-0.92685 -0.98359 -1.65798 
-0.77891 -1.73530 -0.88774 
-1.24925 -1.55529 -0.59875 
-0.80353 -1.82914 -0.58512 
-0.97881 -1.54492 -1.04595 
-1.04400 -1.73707 -0.43740 
-1.21935 -1.45291 -0.89815 
0.48234 -1.24473 1.44426 
0.76678 -0.77680 1.63857 
0.77832 -1.21379 1.34429 
0.92450 -0.97551 1.43948 
0.32399 -1.04222 1.63067 
0.46347 -0.79346 1.74191 
-0.48341 -1.25021 1.43452 
-0.77711 -0.78510 1.61442 
-0.32518 -1.04973 1.61931 
-0.78197 -1.21959 1.33142 
-0.47307 -0.80798 1.71817 
-0.93140 -0.98107 1.42208 
-0.78031 -1.73192 0.65545 
-1.24990 -1.55328 0.36552 
-0.80437 -1.82707 0.35360 
-1.04452 -1.73571 0.20513 
-0.98037 -1.54115 0.81224 
-1.22044 -1.44974 0.66414 
0.30021 -0.38510 2.11594 
0.13458 -0.40553 2.32672 
0.42633 0.19785 2.16262 
0.09698 0.04385 2.90509 
-0.23435 -0.42890 2.07655 
-0.37236 -0.24855 2.32157 
-1.54696 0.48280 1.13509 
-1.72727 0.77165 0.66504 
-1.44367 0.78066 1.10660 
-1.53598 0.92843 0.86586 
-1.72974 0.32255 0.92848 
-1.82186 0.47011 0.68854 
-1.55089 -0.47969 1.13187 
[...]
CELL_DATA 2005
SCALARS Strain double 
LOOKUP_TABLE default 
-0.08621
-0.08977
-0.08798
-0.08782
-0.09012
-0.08790
-0.08744
-0.08755
-0.08776
-0.08732
-0.08824
-0.08761
-0.08791
-0.08764
-0.08793
-0.08810
-0.08767
-0.08819
-0.08750
-0.08772
-0.08714
-0.08823
-0.08791
-0.08761
-0.08737
-0.08997
-0.08823
-0.08594
-0.09038
-0.08747
-0.10198
-0.06808
-0.07522
-0.09970
-0.06213
-0.10052
-0.10088
-0.07389
-0.07731
-0.07369
-0.08746
-0.08765
-0.08754
-0.08755
-0.08753
-0.08758
-0.08751
-0.08743
-0.08742
-0.08763
-0.08785
-0.08848
-0.08737
-0.08701
-0.08893
-0.08735
-0.08852
-0.08804
-0.08839
-0.08786
-0.03377
-0.03412
0.06856
0.06870
0.06900
0.06864
-0.03632
-0.03585
0.06889
0.07017
0.06958
0.06871
-0.02544
-0.04217
0.07724
0.05027
0.06847
0.08744
-0.02463
-0.05020
0.03966
0.08551
0.10143
0.07200
-0.03679
-0.03570
0.06761
0.07331
0.07190
0.06611
-0.03396
-0.03397
0.06942
0.06891
0.06891
0.06948
-0.03398
-0.03396
0.06917
0.06981
0.06976
0.06927
-0.03421
-0.03417
0.06985
0.06947
0.06953
0.06980
-0.03411
-0.03433
0.06901
0.06972
0.06949
0.06911
-0.03450
-0.03455
0.06895
0.06934
0.06945
0.06902
-0.03220
-0.03043
0.06758
0.06674
0.06794
0.06664
-0.03450
-0.03445
0.06966
0.06959
0.06950
0.06969
-0.03368
-0.03359
0.06904
0.06903
0.06887
0.06908
-0.03640
-0.03734
0.07024
0.06906
0.07011
0.07188
-0.03224
-0.03127
0.07152
0.06499
0.06521
0.07205
-0.03423
-0.03421
0.06936
0.06956
0.06946
0.06948
-0.03537
-0.03547
0.06870
0.07015
0.07014
0.06866
-0.03428
-0.03422
0.06929
0.06975
0.06980
0.06936
-0.03416
-0.03414
0.06989
0.06907
0.06922
0.06990
-0.03375
-0.03372
0.06961
0.06845
0.06820
0.06946
-0.02238
-0.04392
0.08829
0.06827
0.04314
0.10409
-0.03273
-0.04095
0.06246
0.06888
0.07380
0.07291
-0.03451
-0.03482
0.06881
0.06725
0.06689
0.06891
-0.08495
0.01365
0.00605
0.41078
0.03229
-0.03440
-0.03393
0.07172
0.06423
0.06466
0.07180
-0.03392
-0.03438
0.06531
0.06901
0.06774
0.06639
-0.03395
-0.03393
0.06945
0.06956
0.06953
0.06944
-0.03393
-0.03387
0.06937
0.06930
0.06938
0.06916
-0.03452
-0.03464
0.06980
0.06944
0.06948
0.06972
-0.03533
-0.03510
0.07019
0.06832
0.06864
0.06988
-0.06441
-0.04417
0.07803
0.07806
0.03265
0.03232
-0.06769
-0.04694
0.07820
0.08038
0.03452
0.03294
-0.06665
-0.04648
0.08005
0.07737
0.03235
0.03342
-0.06601
-0.04468
0.07603
0.08145
0.03285
0.02935
-0.06845
-0.04783
0.07795
0.08211
0.03604
0.03239
-0.06595
-0.04518
0.07988
0.07956
0.03389
0.03408
-0.06546
-0.04479
0.07993
0.07929
0.03361
0.03424
-0.06554
-0.04484
0.07938
0.08020
0.03447
0.03386
-0.06578
-0.04508
0.08022
0.07965
0.03411
0.03452
-0.06538
-0.04480
0.07958
0.07958
0.03395
0.03392
-0.06663
-0.04633
0.07959
0.07933
0.03387
0.03435
-0.06556
-0.04483
0.07934
0.07952
0.03370
0.03360
-0.06599
-0.04532
0.07922
0.07966
0.03406
0.03365
-0.06540
-0.04413
0.07896
0.07890
0.03256
0.03288
-0.06601
-0.04535
0.07967
0.07971
0.03419
0.03414
-0.06618
-0.04546
0.07972
0.07952
0.03382
0.03398
-0.06551
-0.04466
0.07966
0.07926
0.03334
0.03388
-0.06662
-0.04650
0.08009
0.07895
0.03401
0.03528
-0.06520
-0.04392
0.07975
0.07822
0.03224
0.03381
-0.06576
-0.04508
0.07963
0.07948
0.03399
0.03414
-0.06509
-0.04440
0.07944
0.07929
0.03345
0.03376
-0.06651
-0.04605
0.07952
0.08034
0.03477
0.03398
-0.06591
-0.04518
0.07945
0.08026
0.03456
0.03393
-0.06566
-0.04500
0.08027
0.07914
0.03372
0.03457
-0.06535
-0.04463
0.08013
0.07890
0.03304
0.03422
-0.06864
-0.04830
0.08075
0.07982
0.03382
0.03575
-0.06673
-0.04629
0.08035
0.07771
0.03234
0.03459
-0.06213
-0.03910
0.07964
0.07617
0.02771
0.03171
-0.07000
-0.05072
0.08015
0.07946
0.03572
0.03628
-0.06520
-0.04468
0.07738
0.07819
0.03205
0.03149
-0.05925
-0.04208
0.07844
0.07586
0.03766
0.03593
-0.05592
-0.03872
0.07680
0.07428
0.03196
0.03299
-0.05992
-0.04101
0.07203
0.08730
0.04106
0.02794
-0.06660
-0.04981
0.08903
0.08562
0.04435
0.04409
-0.01687
0.02503
0.13191
0.14400
0.02590
0.02615
-0.05745
-0.04701
0.06731
0.08290
0.03894
0.03280
-0.05655
-0.03622
0.07023
0.07135
0.02421
0.02718
-0.03208
0.14750
0.13058
0.02582
0.02627
-0.06577
-0.04565
0.08077
0.07470
0.03019
0.03733
-0.06171
-0.04367
0.07143
0.07597
0.03473
0.02984
-0.06546
-0.04479
0.07991
0.07967
0.03392
0.03428
-0.06578
-0.04521
0.07986
0.07996
0.03432
0.03416
-0.06562
-0.04500
0.07990
0.07976
0.03400
0.03416
-0.06561
-0.04499
0.07986
0.07978
0.03405
0.03425
-0.06551
-0.04481
0.07974
0.07984
0.03421
0.03409
-0.06562
-0.04497
0.07989
0.07993
0.03434
0.03421
-0.06556
-0.04493
0.07966
0.08007
0.03440
0.03390
-0.06542
-0.04475
0.07988
0.07972
0.03409
0.03418
-0.06545
-0.04479
0.07980
0.07981
0.03411
0.03398
-0.06577
-0.04523
0.08005
0.07983
0.03417
0.03435
-0.06610
-0.04585
0.08110
0.07698
0.03223
0.03596
-0.06635
-0.04543
0.08053
0.07911
0.03344
0.03448
-0.06524
-0.04454
0.07644
0.08087
0.03485
0.03085
-0.06513
-0.04460
0.07911
0.07920
0.03373
0.03352
-0.06711
-0.04636
0.08072
0.07916
0.03347
0.03473
-0.06525
-0.04455
0.07851
0.07941
0.03376
0.03309
-0.06673
-0.04598
0.07832
0.08004
0.03428
0.03243
-0.06614
-0.04541
0.07970
0.07798
0.03189
0.03330
-0.06637
-0.04560
0.07947
0.07994
0.03442
0.03391
-0.06611
-0.04569
0.07844
0.07990
0.03430
0.03316
0.07104
0.07114
0.01930
0.02056
0.01712
0.01636
0.07090
0.07058
0.01874
0.02180
0.01807
0.01572
0.07174
0.07187
0.02019
0.01996
0.01691
0.01702
0.07125
0.07138
0.02020
0.02045
0.01760
0.01680
0.07362
0.07543
0.02095
0.01468
0.01385
0.01583
0.07172
0.07151
0.02023
0.01986
0.01650
0.01706
0.07108
0.07073
0.02126
0.01817
0.01436
0.01895
0.09165
0.08112
0.01982
0.01375
-0.00119
0.02174
0.06829
0.06846
0.02416
0.01907
0.01616
0.02005
0.11353
0.07958
0.08052
0.02556
0.07463
0.02561
0.08116
0.07784
0.01339
0.01892
0.01065
0.01545
0.14269
0.14610
0.08071
0.02617
0.11946
0.02577
0.07393
0.07436
0.02211
0.01440
0.01010
0.02016
0.07341
0.07269
0.01919
0.01952
0.01598
0.01650
0.06722
0.06652
0.02293
0.02083
0.01695
0.02024
0.07148
0.07157
0.02057
0.02074
0.01753
0.01742
0.07205
0.07212
0.01993
0.02060
0.01748
0.01680
0.07235
0.07237
0.02026
0.02049
0.01735
0.01714
0.07222
0.07216
0.02014
0.02064
0.01744
0.01687
0.07186
0.07192
0.02063
0.02054
0.01737
0.01749
0.07193
0.07192
0.02076
0.02027
0.01714
0.01746
0.07207
0.07208
0.02068
0.02040
0.01719
0.01751
0.07221
0.07206
0.02051
0.02039
0.01718
0.01732
0.07168
0.07174
0.02061
0.02027
0.01730
0.01735
0.07135
0.07108
0.02066
0.01902
0.01576
0.01817
0.07186
0.07192
0.02001
0.02051
0.01734
0.01689
0.07231
0.07303
0.02013
0.01863
0.01563
0.01691
0.07163
0.07174
0.02030
0.02041
0.01730
0.01715
0.06864
0.06812
0.01966
0.02460
0.01944
0.01677
0.07219
0.07214
0.02042
0.02022
0.01696
0.01720
0.07163
0.07196
0.01934
0.02074
0.01782
0.01581
0.07169
0.07184
0.02020
0.02060
0.01753
0.01706
0.07127
0.07122
0.01965
0.02110
0.01791
0.01640
0.07166
0.07173
0.02015
0.02084
0.01761
0.01707
0.07001
0.06855
0.02305
0.01969
0.01562
0.02202
0.07271
0.07267
0.01977
0.01873
0.01562
0.01642
0.07730
0.08222
0.02242
0.01264
0.01381
0.01467
0.07471
0.07366
0.01398
0.03006
0.02460
0.01188
0.07210
0.07219
0.02041
0.02032
0.01709
0.01716
0.07254
0.07234
0.02034
0.01914
0.01573
0.01720
0.07110
0.07111
0.02090
0.01844
0.01548
0.01756
0.07235
0.07238
0.02031
0.02018
0.01710
0.01719
0.07193
0.07199
0.02062
0.02039
0.01717
0.01748
0.07139
0.07118
0.02090
0.02045
0.01724
0.01773
0.07183
0.07191
0.02071
0.02045
0.01723
0.01751
0.07241
0.07237
0.02009
0.02045
0.01725
0.01677
0.07044
0.07012
0.02022
0.02050
0.01727
0.01727
0.07190
0.07191
0.01961
0.02084
0.01771
0.01661
0.07428
0.08910
0.01328
0.02508
0.02883
0.00064
0.13561
-0.16726
0.06808
0.02625
0.09852
0.02585
0.06961
0.06924
0.01929
0.01891
0.01513
0.01641
0.08974
0.11969
0.05858
0.02551
0.05918
0.02550
0.06895
0.06773
0.01545
0.02157
0.01752
0.01369
0.07184
0.07197
0.01834
0.01809
0.01528
0.01457
0.06836
0.06944
0.02255
0.01688
0.01478
0.01861
0.07376
0.07317
0.01755
0.01946
0.01567
0.01487
0.06964
0.07031
0.01906
0.02084
0.01805
0.01538
0.07195
0.07198
0.02015
0.02064
0.01748
0.01683
0.07149
0.07133
0.01993
0.02084
0.01754
0.01685
0.07220
0.07225
0.02020
0.01970
0.01669
0.01695
0.06921
0.06922
-0.00772
-0.00804
0.07209
-0.00479
-0.00705
0.06746
-0.00840
-0.00548
0.07265
-0.00581
-0.00952
-0.00409
-0.00699
0.07122
0.07093
-0.00578
-0.00561
0.07062
-0.00620
-0.00567
0.07140
-0.00547
-0.00603
0.07082
-0.00579
-0.00540
-0.00605
-0.00594
0.07074
0.07067
-0.00588
-0.00570
0.07064
-0.00637
-0.00621
0.07041
0.07093
-0.00580
-0.00622
-0.00685
-0.00646
-0.00574
-0.00594
0.07077
0.07089
-0.00584
-0.00593
0.07107
0.07049
-0.00654
-0.00595
0.07033
-0.00591
-0.00525
-0.00681
-0.00643
-0.00610
-0.00577
0.07086
0.07061
-0.00647
-0.00610
0.07141
-0.00522
-0.00571
0.07150
-0.00529
-0.00593
0.07031
-0.00619
-0.00538
-0.00667
-0.00569
0.07179
0.06979
-0.00648
-0.00390
0.06826
-0.00809
-0.00542
0.06934
-0.00969
-0.00888
0.07129
-0.00323
-0.00526
-0.00705
-0.00921
0.06418
0.10146
-0.00091
-0.02194
0.05830
-0.00623
-0.00605
0.07620
0.00367
-0.01034
0.09247
-0.00022
-0.00729
-0.03038
-0.03030
0.09628
0.06109
-0.03009
-0.01202
0.09719
0.05583
-0.03290
-0.00873
-0.03277
-0.03129
0.05890
-0.00450
-0.00398
-0.00332
-0.01004
0.07109
0.07098
-0.00591
-0.00568
0.07114
-0.00561
-0.00573
0.07102
-0.00588
-0.00573
0.07109
-0.00578
-0.00570
-0.00567
-0.00578
0.07116
0.07109
-0.00561
-0.00563
0.07097
0.07125
-0.00556
-0.00590
-0.00580
-0.00570
0.07106
-0.00577
-0.00586
-0.00571
-0.00557
0.07187
0.06885
-0.00724
-0.00481
0.07014
-0.00639
-0.00525
0.07173
-0.00564
-0.00807
0.07045
-0.00638
-0.00676
-0.00601
-0.00514
0.06997
0.07049
-0.00646
-0.00672
0.07118
-0.00550
-0.00679
0.06972
-0.00733
-0.00624
0.07105
-0.00550
-0.00608
-0.00589
-0.00672
0.05533
0.05497
0.07585
0.07593
0.05574
0.05592
0.07708
0.07673
-0.01468
-0.01575
0.04896
-0.01427
-0.01521
0.04843
-0.01630
0.04905
-0.01601
0.04899
0.05629
0.05583
0.07609
0.07726
0.05581
0.05667
0.07713
0.07663
-0.01599
-0.01746
0.04942
-0.01716
-0.01947
0.04857
-0.01709
0.04918
-0.01809
0.05065
0.04591
0.04355
0.07323
0.08032
0.05756
0.06804
0.07510
0.06912
-0.01758
-0.01297
0.04588
0.00875
-0.02064
0.01412
-0.01651
0.05209
-0.04032
0.01417
0.04707
0.04214
0.07422
0.07738
0.07194
0.05938
0.07046
0.08087
0.01947
-0.01313
0.01376
-0.02420
-0.01471
0.04849
-0.05132
-0.01223
-0.02263
0.05493
0.05847
0.05412
0.07541
0.08015
0.05414
0.05911
0.07910
0.07395
-0.01648
-0.01816
0.05105
-0.01641
-0.02004
0.04480
-0.01727
0.04830
-0.01679
0.05357
0.05571
0.05636
0.07728
0.07666
0.05605
0.05571
0.07667
0.07709
-0.01462
-0.01602
0.04910
-0.01602
0.04927
-0.01440
-0.01577
0.04972
-0.01583
0.04908
0.05661
0.05603
0.07685
0.07760
0.05602
0.05652
0.07741
0.07705
-0.01446
-0.01588
0.04990
-0.01450
-0.01592
0.04945
-0.01584
0.04925
-0.01588
0.04989
0.05629
0.05665
0.07763
0.07714
0.05657
0.05632
0.07729
0.07745
-0.01470
-0.01614
0.04967
-0.01470
-0.01613
0.04989
-0.01606
0.04992
-0.01606
0.04962
0.05628
0.05601
0.07688
0.07708
0.05567
0.05645
0.07771
0.07670
-0.01495
-0.01612
0.04991
-0.01665
0.04879
-0.01457
-0.01581
0.04939
-0.01618
0.04965
0.05621
0.05579
0.07666
0.07707
0.05581
0.05614
0.07720
0.07683
-0.01550
-0.01684
0.04987
-0.01473
-0.01610
0.04919
-0.01699
0.04906
-0.01618
0.04947
0.05413
0.05432
0.07584
0.07601
0.05402
0.05462
0.07414
0.07326
-0.01205
-0.01466
0.04659
-0.01195
0.04813
-0.01257
-0.01514
0.04736
-0.01217
0.04859
0.05637
0.05643
0.07729
0.07719
0.05649
0.05631
0.07731
0.07743
-0.01502
-0.01646
0.04978
-0.01634
0.04980
-0.01497
-0.01641
0.04978
-0.01630
0.04958
0.05556
0.05595
0.07692
0.07672
0.05570
0.05587
0.07673
0.07674
-0.01407
-0.01561
0.04866
-0.01422
-0.01571
0.04932
-0.01541
0.04898
-0.01556
0.04932
0.05636
0.05816
0.07781
0.07640
0.05656
0.05722
0.07815
0.07850
-0.01680
-0.01765
0.05017
-0.01757
-0.01784
0.05366
-0.01839
0.04931
-0.02083
0.04834
0.05322
0.05698
0.07787
0.07443
0.06048
0.05061
0.07115
0.08240
-0.01416
-0.01573
0.04683
-0.01557
0.05196
-0.01038
-0.01339
0.05004
-0.01026
0.04448
0.05628
0.05630
0.07708
0.07708
0.05615
0.05630
0.07733
0.07720
-0.01471
-0.01614
0.04970
-0.01607
0.04938
-0.01476
-0.01618
0.04975
-0.01612
0.04954
0.05697
0.05586
0.07675
0.07786
0.05505
0.05687
0.07781
0.07584
-0.01573
-0.01704
0.05030
-0.01712
0.04844
-0.01612
-0.01733
0.04919
-0.01764
0.05014
0.05664
0.05611
0.07696
0.07763
0.05615
0.05650
0.07738
0.07715
-0.01476
-0.01623
0.04991
-0.01608
0.04942
-0.01475
-0.01622
0.04951
-0.01609
0.04988
0.05594
0.05673
0.07767
0.07669
0.05662
0.05596
0.07702
0.07757
-0.01467
-0.01609
0.04940
-0.01464
-0.01604
0.05007
-0.01602
0.04994
-0.01601
0.04914
0.05508
0.05635
0.07748
0.07623
0.05620
0.05522
0.07589
0.07703
-0.01440
-0.01584
0.04816
-0.01417
-0.01558
0.04959
-0.01576
0.04972
-0.01557
0.04878
0.04226
0.05427
0.07973
0.07076
0.07068
0.06529
0.08286
0.08826
-0.01957
-0.01126
0.04621
-0.02276
0.06077
0.01634
-0.00601
0.03017
-0.03693
0.00266
0.04662
0.05360
0.08350
0.07239
0.06926
0.04574
0.05471
0.07285
-0.00349
-0.02474
0.02546
-0.01826
-0.01716
0.04967
-0.03196
0.03143
-0.01360
0.04371
0.05380
0.05511
0.07564
0.07434
0.05608
0.05391
0.07529
0.07727
-0.01478
-0.01579
0.04753
-0.01644
0.04932
-0.01554
-0.01667
0.04840
-0.01750
0.04661
-0.12521
-0.08339
0.10920
-0.10797
0.01347
-0.01963
-0.12292
-0.08034
0.04478
0.16161
-0.01710
-0.12595
0.05096
0.05919
0.07968
0.07206
0.05777
0.05212
0.07276
0.07887
-0.01338
-0.01575
0.04331
-0.01455
0.05090
-0.01606
-0.01857
0.05170
-0.01672
0.04618
0.05603
0.05247
0.07144
0.07481
0.05322
0.05503
0.07687
0.07481
-0.01627
-0.01804
0.04979
-0.01740
0.04642
-0.01413
-0.01511
0.04665
-0.01585
0.04767
0.05636
0.05624
0.07717
0.07726
0.05624
0.05633
0.07730
0.07716
-0.01443
-0.01585
0.04970
-0.01581
0.04956
-0.01443
-0.01585
0.04954
-0.01580
0.04962
0.05622
0.05606
0.07717
0.07721
0.05605
0.05598
0.07682
0.07676
-0.01447
-0.01589
0.04949
-0.01580
0.04959
-0.01439
-0.01582
0.04923
-0.01570
0.04939
0.05630
0.05652
0.07751
0.07725
0.05660
0.05618
0.07706
0.07743
-0.01513
-0.01639
0.04959
-0.01666
0.05001
-0.01509
-0.01636
0.04982
-0.01662
0.04951
0.05531
0.05681
0.07811
0.07647
0.05673
0.05536
0.07593
0.07747
-0.01622
-0.01795
0.04819
-0.01727
0.05044
-0.01529
-0.01684
0.04994
-0.01654
0.04891
-0.01657
-0.01886
-0.01591
-0.01947
0.08421
0.08398
-0.01957
-0.01833
0.08473
-0.01912
-0.01681
0.08590
-0.01833
-0.02104
0.08836
-0.01762
-0.01723
-0.01742
-0.01717
0.08557
0.08514
-0.01695
-0.01710
0.08508
-0.01716
-0.01740
0.08597
-0.01737
-0.01691
0.08542
-0.01804
-0.01725
-0.01880
-0.01667
0.08517
0.08468
-0.01709
-0.01768
0.08553
-0.01801
-0.01697
-0.01732
-0.01764
0.08483
0.08544
-0.01828
-0.01715
-0.01745
-0.01736
0.08583
0.08528
-0.01704
-0.01836
-0.01705
-0.01740
0.08552
0.08525
-0.01833
-0.01588
0.08361
-0.01661
-0.01809
-0.01673
-0.01750
0.08505
0.08519
-0.01833
-0.01709
0.08604
-0.01751
-0.01732
0.08599
-0.01722
-0.01681
0.08480
-0.01956
-0.01817
-0.02191
-0.01409
0.08626
0.08797
-0.01883
-0.01682
0.08401
-0.01179
-0.02280
0.08607
-0.02119
-0.01648
0.08216
-0.01765
-0.01190
0.01765
-0.06743
0.08243
0.02124
-0.01107
-0.01708
0.08073
-0.01076
-0.02339
0.09163
0.00146
-0.05802
0.05640
0.02245
-0.08948
-0.02089
-0.01897
0.02471
0.08875
0.02208
-0.08160
-0.01393
-0.01972
0.02335
0.07974
-0.02119
-0.01592
0.08229
-0.01703
-0.01745
-0.01709
-0.01708
0.08570
0.08546
-0.01741
-0.01723
0.08573
-0.01728
-0.01722
0.08564
-0.01724
-0.01709
0.08554
-0.01724
-0.01702
-0.01723
-0.01709
0.08564
0.08567
-0.01718
-0.01700
-0.01718
-0.01746
0.08544
0.08589
-0.01703
-0.01743
0.08558
-0.01805
-0.01823
-0.01742
-0.01594
0.08664
0.08136
-0.01761
-0.01688
0.08509
-0.01755
-0.01941
0.08689
-0.01676
-0.01816
0.08494
-0.01693
-0.01786
-0.01683
-0.01801
0.08396
0.08535
-0.01888
-0.01840
0.08564
-0.01726
-0.01810
0.08375
-0.01797
-0.01761
0.08574
0.04782
0.04790
0.04797
0.04744
0.04733
0.04914
0.05020
0.04724
0.04469
0.12844
-0.04860
-0.07338
0.05334
0.04890
0.04215
0.04789
0.04850
0.04859
0.04866
0.04825
0.04844
0.04835
0.04851
0.04818
0.04765
0.04936
0.04589
0.04826
0.04802
0.04850
0.04779
0.04725
0.04902
0.04818
0.04811
0.04858
0.04479
0.05559
0.04772
0.04870
0.04796
0.04661
0.04866
0.04830
0.04823
0.04771
0.04879
0.04831
0.10367
-0.03378
-0.02005
0.04437
0.04587
0.04811
0.04570
0.04972
0.04624
0.04820
0.04781
0.04859
0.18859
0.02137
-0.20279
0.02949
-0.22817
0.10917
-0.12529
0.00566
-0.06815
-0.02918
-0.05392
-0.08418
0.15775
0.06704
-0.08955
0.01095
-0.07190
0.22008
0.19329
0.01718
0.31159
-0.05717
0.14797
-0.04462
-0.10743
0.11151
-0.10312
-0.07857
-0.02856
0.03325
0.05232
-0.07629
-0.22089
0.17000
-0.02749
0.04312
-0.02459
-0.28727
-0.15691
0.16131
0.03981
0.11304
-0.05849
-0.06952
0.24229
-0.06698
-0.06245
0.19761
0.00605
-0.17697
-0.01193
0.16236
-0.18171
-0.10315
-0.07637
-0.12689
0.15959
-0.08978
-0.04680
-0.08485
-0.02339
-0.02208
-0.13895
-0.03835
-0.08647
0.02725
-0.20065
0.00314
-0.06362
0.00040
-0.02877
-0.11746
0.00078
-0.01920
0.04388
-0.04885
-0.06097
0.03690
0.02198
0.06635
0.04460
0.05594
0.07334
0.05758
-0.05958
-0.03388
-0.21713
-0.20062
-0.16166
0.01154
-0.10723
-0.11524
0.10000
