# vtk DataFile Version 3.0
Point representing Sub_cellular elem model
ASCII

DATASET UNSTRUCTURED_GRID
POINTS 693 float
0.00097 1.73284 0.86110 
0.00712 1.73690 -1.28895 
1.74458 1.06962 -0.20400 
1.74354 -1.07972 -0.20228 
0.00626 -1.74745 -1.28601 
-0.00115 -1.73970 0.86166 
1.06417 -0.00112 1.55179 
-1.08115 0.00408 1.53213 
1.08456 -0.00589 -1.94709 
-1.06899 -0.00552 -1.95415 
-1.73848 1.07265 -0.21869 
-1.73971 -1.08149 -0.21702 
0.00469 2.04749 -0.21412 
1.02755 1.65298 0.42496 
0.63139 1.02021 1.45788 
-0.62957 1.01854 1.45959 
-1.02245 1.65477 0.41686 
1.03297 1.65492 -0.84307 
0.64276 1.02053 -1.86917 
-0.62672 1.02116 -1.87336 
-1.02146 1.65689 -0.85073 
2.05431 -0.00511 -0.20119 
1.65568 0.62828 0.82416 
1.66745 0.62824 -1.23071 
1.03184 -1.66560 -0.84031 
1.02572 -1.66118 0.42717 
1.65417 -0.63459 0.82380 
1.66698 -0.63967 -1.22960 
0.00327 -2.05754 -0.21101 
0.64224 -1.03192 -1.86730 
-0.62697 -1.03207 -1.87148 
-1.02236 -1.66692 -0.84813 
0.62351 -1.02120 1.45394 
-0.63760 -1.02140 1.44629 
-1.02505 -1.66350 0.41797 
0.04982 0.54390 2.26482 
-1.65644 0.63232 0.80624 
-1.65916 -0.63528 0.80573 
0.00872 -0.00580 -2.26119 
-1.65612 0.62977 -1.24309 
-1.65626 -0.64002 -1.24196 
-2.05068 -0.00414 -0.21900 
0.00292 1.96443 0.35650 
0.52423 1.76326 0.68203 
0.32201 1.43979 1.20601 
-0.32295 1.43991 1.20465 
-0.52076 1.76388 0.67820 
0.00608 1.96714 -0.78483 
0.53065 1.76652 -1.10588 
0.33155 1.44272 -1.62910 
-0.31611 1.44319 -1.63128 
-0.51735 1.76751 -1.10961 
1.45008 1.41135 0.11745 
1.45329 1.41204 -0.52981 
1.97374 0.56522 -0.20217 
1.77103 0.88818 0.32042 
1.77686 0.88863 -0.72749 
1.97315 -0.57540 -0.20123 
1.45217 -1.42257 -0.52749 
1.44862 -1.42061 0.11948 
1.76982 -0.89682 0.32149 
1.77614 -0.89958 -0.72597 
0.52962 -1.77717 -1.10292 
0.00493 -1.97745 -0.78169 
0.33084 -1.45368 -1.62653 
-0.31665 -1.45389 -1.62873 
-0.51819 -1.77779 -1.10672 
0.52233 -1.77058 0.68381 
0.00128 -1.97357 0.35907 
0.31871 -1.44374 1.20411 
-0.32644 -1.44465 1.20076 
-0.52309 -1.77208 0.67900 
0.89206 0.52058 1.57899 
1.41001 0.31930 1.24844 
1.40894 -0.32311 1.24605 
0.88840 -0.52506 1.56978 
0.55761 -0.00419 1.81991 
-0.89579 0.52768 1.56876 
-0.90596 -0.52307 1.55631 
-0.58660 0.00228 1.80072 
-1.41646 0.32501 1.22927 
-1.41950 -0.32166 1.22686 
0.90341 0.51754 -1.97830 
1.42617 0.31759 -1.65294 
1.42595 -0.32927 -1.65236 
0.90313 -0.52924 -1.97735 
0.58005 -0.00588 -2.17845 
-0.88732 0.51809 -1.98414 
-0.88739 -0.52916 -1.98316 
-0.56305 -0.00568 -2.18200 
-1.41234 0.31838 -1.66281 
-1.41236 -0.32909 -1.66221 
-1.44435 1.41425 0.10518 
-1.44431 1.41477 -0.54129 
-1.76816 0.89147 0.30406 
-1.76828 0.89106 -0.74158 
-1.96908 0.56770 -0.21912 
-1.44540 -1.42437 -0.53913 
-1.44648 -1.42292 0.10684 
-1.77014 -0.89841 0.30502 
-1.76880 -0.90068 -0.74007 
-1.96978 -0.57613 -0.21821 
0.55998 1.94460 0.09349 
-0.55256 1.94564 0.08925 
0.56217 1.94588 -0.51700 
-0.55147 1.94706 -0.52116 
0.89815 1.38651 0.99657 
1.05528 1.75595 -0.20897 
1.39275 1.19828 0.69470 
-0.00272 1.04807 1.56031 
1.20063 0.89379 1.19106 
0.30798 0.55296 1.78782 
-0.89600 1.38747 0.99070 
-0.29434 0.53587 1.80075 
-1.20061 0.89795 1.17940 
-1.04677 1.75814 -0.21718 
-1.39000 1.20135 0.68196 
0.90820 1.38906 -1.41450 
1.40175 1.19983 -1.10667 
0.00833 1.04528 -1.97287 
1.21387 0.89436 -1.60122 
0.31425 0.55057 -2.15961 
-0.89415 1.39038 -1.42085 
-0.29708 0.55076 -2.16151 
-1.19967 0.89556 -1.60964 
-1.39003 1.20187 -1.11708 
1.94923 0.30034 0.35511 
1.95593 0.29967 -0.75894 
1.94874 -0.30882 0.35550 
1.95567 -0.31077 -0.75841 
1.75589 -0.00297 0.84945 
1.76880 -0.00576 -1.25411 
1.05388 -1.76591 -0.20618 
1.40090 -1.21096 -1.10461 
0.56087 -1.95617 -0.51389 
0.90736 -1.40015 -1.41207 
1.39062 -1.20531 0.69524 
0.55846 -1.95406 0.09644 
0.89485 -1.39146 0.99665 
1.19704 -0.89842 1.18803 
1.21330 -0.90584 -1.59962 
-0.55275 -1.95717 -0.51823 
-0.55429 -1.95539 0.09177 
0.00795 -1.05647 -1.97094 
0.31403 -0.56215 -2.15857 
-0.89459 -1.40079 -1.41845 
-0.29722 -0.56212 -2.16047 
-1.19984 -0.90617 -1.60802 
-1.04839 -1.76785 -0.21480 
-1.39048 -1.21199 -1.11504 
-0.00828 -1.04912 1.55071 
0.28936 -0.54576 1.78089 
-0.90032 -1.39355 0.98754 
-0.31494 -0.54150 1.77423 
-1.20650 -0.89959 1.17403 
-1.39362 -1.20758 0.68156 
-1.75984 -0.00073 0.82943 
-1.94851 0.30267 0.33628 
-1.94928 -0.30854 0.33664 
-1.75793 -0.00515 -1.26724 
-1.94825 0.30110 -0.77454 
-1.94840 -0.31069 -0.77401 
0.00196 1.86497 0.61982 
0.26174 1.76475 0.78211 
0.16098 1.60316 1.04311 
-0.16064 1.60331 1.04209 
-0.25911 1.76503 0.78022 
0.00663 1.86864 -1.04808 
0.26814 1.76857 -1.20818 
0.16889 1.60711 -1.46900 
-0.15397 1.60738 -1.47010 
-0.25427 1.76906 -1.20999 
1.61462 1.25044 -0.04360 
1.61632 1.25069 -0.36635 
1.87568 0.82851 -0.20301 
1.77477 0.98955 0.05745 
1.77764 0.98983 -0.46489 
1.87485 -0.83865 -0.20165 
1.61524 -1.26103 -0.36431 
1.61337 -1.26014 -0.04169 
1.77367 -0.99903 0.05892 
1.77677 -1.00040 -0.46323 
0.26720 -1.77917 -1.20519 
0.00563 -1.87905 -1.04502 
0.16811 -1.61785 -1.46620 
-0.15468 -1.61800 -1.46732 
-0.25513 -1.77947 -1.20704 
0.25977 -1.77182 0.78334 
0.00013 -1.87315 0.62163 
0.15849 -1.60866 1.04251 
-0.16329 -1.60918 1.04092 
-0.26127 -1.77263 0.78091 
0.99124 0.25781 1.58320 
1.24792 0.15799 1.41594 
1.24841 -0.16017 1.41301 
0.99352 -0.26070 1.57555 
0.82300 -0.00136 1.69523 
-1.00497 0.26494 1.56527 
-1.01089 -0.25733 1.55872 
-0.84487 0.00417 1.67659 
-1.25951 0.16377 1.39588 
-1.26198 -0.15706 1.39353 
1.00471 0.25504 -1.97944 
1.26532 0.15538 -1.81730 
1.26522 -0.16712 -1.81702 
1.00456 -0.26680 -1.97897 
0.84352 -0.00589 -2.07928 
-0.98881 0.25550 -1.98594 
-0.98883 -0.26658 -1.98545 
-0.82711 -0.00560 -2.08460 
-1.25052 0.15592 -1.82577 
-1.25053 -0.16680 -1.82547 
-1.60875 1.25350 -0.05731 
-1.60877 1.25362 -0.37956 
-1.77028 0.99269 0.04193 
-1.77033 0.99264 -0.47944 
-1.87031 0.83140 -0.21894 
-1.60996 -1.26289 -0.37763 
-1.61043 -1.26221 -0.05555 
-1.77186 -1.00078 0.04331 
-1.77117 -1.00189 -0.47782 
-1.87130 -0.84003 -0.21765 
0.00384 2.02617 0.07572 
0.00544 2.02759 -0.50399 
0.28900 2.02105 -0.06475 
-0.28051 2.02162 -0.06690 
0.28994 2.02175 -0.36122 
-0.27984 2.02235 -0.36335 
0.78225 1.72582 0.56184 
1.25249 1.54706 0.27528 
0.80794 1.82084 0.25936 
0.98080 1.53513 0.72139 
1.04847 1.72934 0.11266 
1.22118 1.44377 0.57491 
0.48163 1.24506 1.34441 
0.77054 0.77827 1.53625 
0.77940 1.21395 1.24383 
0.32322 1.04491 1.53126 
0.92669 0.97542 1.33926 
0.46913 0.80105 1.63772 
-0.48235 1.24432 1.34435 
-0.76942 0.78115 1.53323 
-0.32508 1.04211 1.53463 
-0.77800 1.21414 1.24092 
-0.46439 0.79451 1.64510 
-0.92567 0.97794 1.33353 
-0.77788 1.72693 0.55596 
-1.24697 1.54953 0.26493 
-0.80169 1.82227 0.25315 
-0.97732 1.53656 0.71395 
-1.04165 1.73140 0.10439 
-1.21718 1.44610 0.56467 
0.78832 1.72841 -0.98300 
1.25695 1.54834 -0.69041 
0.81163 1.82255 -0.68028 
1.05121 1.73038 -0.53065 
0.98874 1.53765 -1.13959 
1.22842 1.44566 -0.99002 
0.49117 1.24530 -1.76400 
0.78160 0.77540 -1.94134 
0.79073 1.21578 -1.66015 
0.33025 1.03984 -1.94584 
0.93921 0.97550 -1.75083 
0.47879 0.79956 -2.03653 
-0.47537 1.24588 -1.76723 
-0.76547 0.77602 -1.94641 
-0.31374 1.04016 -1.94794 
-0.77559 1.21673 -1.66549 
-0.46208 0.79993 -2.03954 
-0.92395 0.97643 -1.75714 
-0.77580 1.72990 -0.98870 
-1.24663 1.55074 -0.70002 
-0.80046 1.82421 -0.68629 
-1.04114 1.73254 -0.53865 
-0.97591 1.53933 -1.14672 
-1.21673 1.44775 -0.99914 
2.03408 0.28453 -0.20156 
2.03378 -0.29474 -0.20107 
2.02680 0.14329 0.08362 
2.03026 0.14281 -0.48649 
2.02661 -0.15275 0.08385 
2.03012 -0.15356 -0.48624 
1.73105 0.76656 0.57866 
1.54746 0.47765 1.04956 
1.53972 0.92388 0.77770 
1.44605 0.77600 1.01864 
1.82442 0.46471 0.60368 
1.73049 0.31726 0.84401 
1.73991 0.76693 -0.98549 
1.56176 0.47689 -1.45552 
1.55027 0.92481 -1.18667 
1.45908 0.77647 -1.42694 
1.83395 0.46417 -1.00880 
1.74295 0.31585 -1.24923 
1.25582 -1.55898 -0.68785 
0.78722 -1.73909 -0.98011 
1.04995 -1.74077 -0.52783 
1.22742 -1.45658 -0.98757 
0.81040 -1.83302 -0.67730 
0.98775 -1.54856 -1.13697 
1.25082 -1.55582 0.27741 
0.78036 -1.73351 0.56396 
1.04690 -1.73861 0.11529 
1.21914 -1.45133 0.57632 
0.80631 -1.82974 0.26204 
0.97848 -1.54186 0.72277 
1.72970 -0.77412 0.57913 
1.54593 -0.48269 1.04818 
1.82348 -0.47207 0.60398 
1.72960 -0.32327 0.84385 
1.53777 -0.93053 0.77756 
1.44373 -0.78146 1.01705 
1.73932 -0.77815 -0.98415 
1.56142 -0.48846 -1.45466 
1.83358 -0.47548 -1.00798 
1.74271 -0.32734 -1.24866 
1.54960 -0.93611 -1.18505 
1.45854 -0.78795 -1.42556 
0.00414 -2.03781 -0.50083 
0.00231 -2.03591 0.07866 
0.28859 -2.03190 -0.35806 
0.28754 -2.03090 -0.06167 
-0.28121 -2.03247 -0.36030 
-0.28204 -2.03156 -0.06400 
0.49056 -1.25648 -1.76175 
0.78120 -0.78697 -1.93991 
0.79005 -1.22703 -1.65797 
0.93865 -0.98695 -1.74906 
0.32980 -1.05114 -1.94393 
0.47844 -0.81106 -2.03505 
-0.47575 -1.25668 -1.76498 
-0.76561 -0.78702 -1.94496 
-0.31406 -1.05121 -1.94602 
-0.77592 -1.22739 -1.66332 
-0.46227 -0.81108 -2.03805 
-0.92415 -0.98719 -1.75536 
-0.77666 -1.74007 -0.98592 
-1.24762 -1.56059 -0.69763 
-0.80158 -1.83427 -0.68350 
-0.97655 -1.54953 -1.14418 
-1.04237 -1.74242 -0.53609 
-1.21740 -1.45781 -0.99678 
0.47646 -1.24714 1.34163 
0.76374 -0.78239 1.52796 
0.77435 -1.21697 1.24210 
0.92140 -0.97920 1.33485 
0.31576 -1.04467 1.52569 
0.45690 -0.79929 1.63154 
-0.48738 -1.24804 1.33628 
-0.77990 -0.78120 1.51791 
-0.33161 -1.04457 1.52166 
-0.78373 -1.21842 1.23356 
-0.47636 -0.79769 1.62477 
-0.93307 -0.97994 1.32397 
-0.78041 -1.73552 0.55687 
-1.24944 -1.55823 0.26634 
-0.80377 -1.83165 0.25508 
-1.04371 -1.74078 0.10635 
-0.98065 -1.54419 0.71347 
-1.22040 -1.45378 0.56491 
0.31045 -0.37429 2.02461 
0.19416 -0.39401 2.24520 
0.40005 0.29379 2.11250 
0.18967 -0.35155 2.90115 
-0.17582 -0.46424 2.02067 
-0.33104 -0.29525 2.22316 
-1.55063 0.48245 1.03099 
-1.72988 0.77012 0.56149 
-1.44672 0.78054 1.00291 
-1.53859 0.92768 0.76224 
-1.73301 0.32073 0.82453 
-1.82465 0.46788 0.58493 
[...]
CELL_DATA 2071
SCALARS Strain double 
LOOKUP_TABLE default 
-0.08667
-0.08920
-0.08745
-0.08682
-0.08944
-0.08850
-0.08675
-0.08814
-0.08752
-0.08717
-0.08888
-0.08718
-0.08879
-0.08667
-0.08759
-0.08860
-0.08717
-0.08904
-0.08689
-0.08779
-0.08697
-0.08835
-0.08797
-0.08756
-0.08724
-0.08928
-0.08818
-0.08856
-0.08800
-0.08915
-0.10082
-0.07553
-0.06978
-0.10337
-0.06837
-0.09105
-0.09698
-0.08055
-0.08546
-0.07349
-0.08772
-0.08758
-0.08741
-0.08780
-0.08732
-0.08731
-0.08740
-0.08761
-0.08777
-0.08758
-0.08727
-0.08800
-0.08879
-0.08831
-0.08727
-0.08752
-0.08806
-0.08881
-0.08871
-0.08701
-0.03512
-0.03535
0.06988
0.06904
0.06899
0.06995
-0.03656
-0.03649
0.06983
0.07037
0.06967
0.06936
-0.02716
-0.03753
0.07715
0.05496
0.06697
0.08450
-0.02675
-0.05315
0.04412
0.09163
0.11054
0.07690
-0.03563
-0.03451
0.06859
0.07209
0.07005
0.06714
-0.03297
-0.03301
0.06857
0.06879
0.06880
0.06855
-0.03457
-0.03449
0.06917
0.07023
0.07025
0.06925
-0.03391
-0.03387
0.07004
0.06873
0.06896
0.06994
-0.03370
-0.03384
0.07006
0.06813
0.06814
0.07013
-0.03604
-0.03601
0.07014
0.06994
0.06973
0.07003
-0.03163
-0.03087
0.06547
0.06859
0.06984
0.06407
-0.03421
-0.03421
0.06875
0.07016
0.07010
0.06880
-0.03331
-0.03329
0.06874
0.06878
0.06881
0.06887
-0.03662
-0.03693
0.06920
0.06913
0.06976
0.06992
-0.03184
-0.03127
0.06761
0.06557
0.06693
0.06658
-0.03401
-0.03397
0.06980
0.06885
0.06884
0.06984
-0.03555
-0.03558
0.06907
0.06979
0.06988
0.06909
-0.03447
-0.03444
0.06932
0.06998
0.06998
0.06940
-0.03397
-0.03394
0.06983
0.06898
0.06916
0.06973
-0.03372
-0.03377
0.06992
0.06824
0.06796
0.06998
-0.03041
-0.04829
0.08071
0.07418
0.05206
0.09382
-0.02621
-0.04305
0.04909
0.07800
0.09059
0.07062
-0.03584
-0.03536
0.06953
0.06772
0.06826
0.06930
-0.19759
0.09699
0.12091
-0.09190
0.00724
-0.03680
-0.03611
0.07392
0.06586
0.06699
0.07229
-0.03466
-0.03514
0.06559
0.06980
0.06963
0.06621
-0.03387
-0.03392
0.06938
0.06939
0.06943
0.06939
-0.03495
-0.03509
0.06946
0.07042
0.07048
0.06918
-0.03464
-0.03483
0.06922
0.07032
0.07041
0.06897
-0.03320
-0.03315
0.06868
0.06763
0.06803
0.06844
-0.06549
-0.04551
0.07912
0.07872
0.03299
0.03351
-0.06730
-0.04685
0.07907
0.08068
0.03412
0.03348
-0.06592
-0.04608
0.08190
0.07715
0.03293
0.03745
-0.06406
-0.04247
0.07536
0.08339
0.03740
0.02924
-0.06761
-0.04686
0.07887
0.08201
0.03485
0.03342
-0.06680
-0.04623
0.07961
0.08062
0.03505
0.03420
-0.06460
-0.04384
0.07936
0.07902
0.03314
0.03351
-0.06619
-0.04548
0.07930
0.08074
0.03510
0.03391
-0.06550
-0.04479
0.08064
0.07876
0.03341
0.03480
-0.06514
-0.04447
0.08046
0.07851
0.03276
0.03460
-0.06741
-0.04712
0.08034
0.07933
0.03453
0.03532
-0.06487
-0.04397
0.07980
0.07843
0.03267
0.03382
-0.06723
-0.04679
0.07972
0.08058
0.03498
0.03427
-0.06423
-0.04305
0.07806
0.07922
0.03264
0.03134
-0.06565
-0.04502
0.07855
0.08053
0.03489
0.03303
-0.06707
-0.04669
0.07918
0.08058
0.03519
0.03411
-0.06500
-0.04421
0.07950
0.07862
0.03287
0.03376
-0.06760
-0.04727
0.07980
0.07970
0.03455
0.03459
-0.06445
-0.04324
0.07824
0.07874
0.03197
0.03160
-0.06568
-0.04491
0.08036
0.07869
0.03312
0.03465
-0.06488
-0.04415
0.07952
0.07913
0.03322
0.03370
-0.06669
-0.04625
0.07971
0.08041
0.03482
0.03424
-0.06602
-0.04533
0.07941
0.08046
0.03480
0.03397
-0.06554
-0.04484
0.08039
0.07902
0.03361
0.03460
-0.06522
-0.04454
0.08028
0.07875
0.03287
0.03447
-0.06773
-0.04744
0.07908
0.07950
0.03328
0.03346
-0.06669
-0.04631
0.07910
0.07860
0.03292
0.03365
-0.06693
-0.04669
0.08057
0.07665
0.03111
0.03591
-0.06545
-0.04393
0.07635
0.07907
0.03319
0.03057
-0.06722
-0.04660
0.07889
0.07854
0.03248
0.03370
-0.06742
-0.04350
0.07734
0.08835
0.03966
0.02805
-0.05888
-0.04051
0.07942
0.07026
0.02845
0.03696
-0.05981
-0.04129
0.07392
0.07553
0.03282
0.03230
-0.05526
-0.04060
0.07761
0.06882
0.03160
0.03390
-0.02646
-0.01501
0.13422
0.14531
0.02583
0.02618
-0.05532
-0.05231
0.05820
0.09373
0.05623
0.03280
-0.05141
-0.03778
0.06697
0.07254
0.03036
0.02884
-0.04861
0.11421
0.13386
0.02543
0.02529
-0.07043
-0.04868
0.08733
0.07818
0.03142
0.03986
-0.06280
-0.04456
0.07107
0.08058
0.03686
0.02828
-0.06583
-0.04524
0.08028
0.07959
0.03393
0.03459
-0.06566
-0.04503
0.08026
0.07936
0.03371
0.03453
-0.06543
-0.04478
0.07937
0.08001
0.03425
0.03372
-0.06587
-0.04524
0.08008
0.07978
0.03413
0.03443
-0.06533
-0.04467
0.07959
0.07973
0.03401
0.03393
-0.06531
-0.04466
0.07954
0.07990
0.03431
0.03365
-0.06540
-0.04474
0.07973
0.07973
0.03419
0.03389
-0.06555
-0.04481
0.07971
0.07983
0.03418
0.03412
-0.06603
-0.04559
0.07979
0.08042
0.03475
0.03401
-0.06576
-0.04528
0.07955
0.08039
0.03467
0.03372
-0.06524
-0.04476
0.07896
0.07846
0.03323
0.03394
-0.06582
-0.04490
0.07859
0.08049
0.03460
0.03290
-0.06707
-0.04660
0.07841
0.08046
0.03542
0.03319
-0.06657
-0.04597
0.08067
0.07898
0.03390
0.03516
-0.06508
-0.04418
0.07957
0.07842
0.03225
0.03328
-0.06544
-0.04468
0.07806
0.08026
0.03430
0.03277
-0.06638
-0.04595
0.07792
0.08026
0.03440
0.03238
-0.06701
-0.04625
0.08032
0.07807
0.03213
0.03453
-0.06667
-0.04585
0.08053
0.07912
0.03390
0.03509
-0.06484
-0.04404
0.07830
0.07878
0.03295
0.03281
0.07231
0.07228
0.01927
0.01991
0.01640
0.01595
0.07153
0.07144
0.01998
0.02015
0.01634
0.01696
0.07137
0.07120
0.02139
0.01937
0.01624
0.01821
0.07250
0.07253
0.02056
0.01905
0.01600
0.01734
0.07399
0.07590
0.02082
0.01594
0.01399
0.01587
0.07173
0.07144
0.02121
0.01893
0.01578
0.01818
0.07096
0.06957
0.02236
0.01817
0.01438
0.02009
0.08645
0.07383
0.02584
0.02123
0.00938
0.02660
0.06895
0.06985
0.02520
0.01675
0.01494
0.02111
0.10139
0.18731
0.03963
0.02572
0.08125
0.02546
0.08387
0.07803
0.01501
0.01945
0.01060
0.01727
0.15028
-0.01271
0.09181
0.02558
0.09802
0.02575
0.07965
0.07839
0.02307
0.01410
0.00921
0.02017
0.07143
0.07086
0.02001
0.02069
0.01720
0.01719
0.06823
0.06769
0.02121
0.02209
0.01871
0.01920
0.07141
0.07155
0.01980
0.02144
0.01827
0.01667
0.07109
0.07117
0.02008
0.02132
0.01823
0.01692
0.07271
0.07264
0.02032
0.01991
0.01688
0.01721
0.07276
0.07273
0.02020
0.01998
0.01673
0.01697
0.07181
0.07185
0.02089
0.02026
0.01700
0.01768
0.07099
0.07078
0.02102
0.02091
0.01778
0.01773
0.07166
0.07181
0.02072
0.02048
0.01726
0.01762
0.07232
0.07217
0.01974
0.02105
0.01783
0.01635
0.07274
0.07285
0.01925
0.02054
0.01758
0.01618
0.07270
0.07264
0.02125
0.01725
0.01399
0.01787
0.07254
0.07257
0.02059
0.01935
0.01616
0.01738
0.07179
0.07108
0.02179
0.01762
0.01410
0.01887
0.07241
0.07233
0.02066
0.01939
0.01618
0.01758
0.06668
0.06717
0.02253
0.02008
0.01748
0.01908
0.07132
0.07134
0.02082
0.02054
0.01736
0.01762
0.07124
0.07137
0.01910
0.02105
0.01797
0.01586
0.07130
0.07132
0.02016
0.02102
0.01790
0.01709
0.07138
0.07149
0.01936
0.02115
0.01798
0.01609
0.07155
0.07171
0.01998
0.02112
0.01793
0.01681
0.07105
0.07032
0.02136
0.01741
0.01418
0.01859
0.07225
0.07224
0.01935
0.01918
0.01591
0.01608
0.07390
0.07690
0.02004
0.01521
0.01449
0.01349
0.06946
0.07102
0.01819
0.02085
0.01863
0.01429
0.07242
0.07246
0.02003
0.02041
0.01717
0.01683
0.07244
0.07243
0.02061
0.01896
0.01559
0.01746
0.07165
0.07180
0.02014
0.01864
0.01547
0.01705
0.07247
0.07242
0.02037
0.02006
0.01697
0.01724
0.07193
0.07194
0.02074
0.02023
0.01702
0.01754
0.07126
0.07101
0.02083
0.02079
0.01766
0.01756
0.07179
0.07187
0.02061
0.02046
0.01727
0.01750
0.07210
0.07193
0.02002
0.02095
0.01772
0.01665
0.07024
0.07012
0.02045
0.02067
0.01749
0.01712
0.07259
0.07271
0.01937
0.02045
0.01744
0.01643
0.07914
0.07788
0.02326
0.01876
0.01335
0.02026
0.12418
-0.07574
0.08302
0.02579
0.08163
0.02562
0.07471
0.07203
0.01495
0.02095
0.01527
0.01465
0.12111
0.10822
0.06866
0.02572
0.09304
0.02548
0.06915
0.06827
0.01782
0.02162
0.01669
0.01565
0.07186
0.07206
0.01885
0.01816
0.01480
0.01581
0.07110
0.07202
0.02281
0.01529
0.01324
0.01781
0.07308
0.07187
0.02006
0.01804
0.01416
0.01734
0.06920
0.06970
0.02084
0.01943
0.01679
0.01759
0.07300
0.07298
0.02013
0.01983
0.01645
0.01672
0.07133
0.07094
0.02157
0.01943
0.01630
0.01844
0.07121
0.07101
0.02153
0.01937
0.01646
0.01842
0.07001
0.07002
-0.00720
-0.00705
0.07265
-0.00527
-0.00654
0.06782
-0.00783
-0.00333
0.07288
-0.00436
-0.00906
-0.00494
-0.00590
0.07085
0.07173
-0.00482
-0.00552
0.07043
-0.00677
-0.00632
0.07193
-0.00478
-0.00592
0.06994
-0.00650
-0.00511
-0.00699
-0.00544
0.07154
0.07029
-0.00541
-0.00460
0.06957
-0.00734
-0.00585
0.07045
0.07183
-0.00473
-0.00579
-0.00726
-0.00762
-0.00507
-0.00705
0.06996
0.07175
-0.00472
-0.00598
0.07114
0.06969
-0.00727
-0.00599
0.07066
-0.00535
-0.00509
-0.00725
-0.00782
-0.00693
-0.00521
0.07094
0.07052
-0.00665
-0.00614
0.07153
-0.00507
-0.00553
0.07169
-0.00506
-0.00590
0.07019
-0.00630
-0.00528
-0.00683
-0.00555
0.06980
0.07094
-0.00653
-0.00687
0.06970
-0.00734
-0.00684
0.06833
-0.00837
-0.00514
0.07028
-0.00675
-0.00839
-0.00695
-0.00647
0.06975
0.09124
0.00085
-0.01433
0.05634
-0.01163
-0.00009
0.05772
-0.00764
-0.00385
0.10441
-0.00790
-0.03350
-0.02879
-0.03467
0.08107
0.06926
-0.01922
-0.01662
0.10033
0.05193
-0.03759
-0.01027
-0.01537
-0.02492
0.06523
-0.00183
-0.00061
0.00109
-0.01429
0.07140
0.07085
-0.00588
-0.00541
0.07070
-0.00606
-0.00548
0.07123
-0.00571
-0.00609
0.07103
-0.00568
-0.00550
-0.00590
-0.00599
0.07096
0.07102
-0.00572
-0.00610
0.07114
0.07086
-0.00579
-0.00586
-0.00560
-0.00570
0.07145
-0.00532
-0.00583
-0.00541
-0.00608
0.06990
0.07049
-0.00634
-0.00677
0.07166
-0.00533
-0.00684
0.07106
-0.00520
-0.00594
0.06991
-0.00614
-0.00496
-0.00739
-0.00652
0.06935
0.07144
-0.00586
-0.00710
0.07161
-0.00548
-0.00736
0.06981
-0.00699
-0.00520
0.07025
-0.00591
-0.00495
-0.00700
-0.00700
0.05549
0.05627
0.07711
0.07643
0.05702
0.05613
0.07694
0.07797
-0.01570
-0.01680
0.04875
-0.01578
-0.01678
0.04972
-0.01721
0.05032
-0.01735
0.04947
0.05609
0.05639
0.07703
0.07745
0.05668
0.05733
0.07763
0.07698
-0.01653
-0.01765
0.04909
-0.01746
-0.01915
0.04886
-0.01792
0.05027
-0.01858
0.05150
0.04860
0.05023
0.07653
0.07956
0.06065
0.05858
0.07409
0.07821
-0.01680
-0.01400
0.04611
0.00752
-0.01786
0.02508
-0.01780
0.05369
-0.02264
0.02108
0.05946
0.04472
0.07163
0.08323
0.07961
0.06561
0.07771
0.09115
0.01201
-0.00938
0.03620
-0.02539
-0.01499
0.05149
-0.05652
-0.00284
-0.02531
0.05818
0.05697
0.05501
0.07638
0.07964
0.05515
0.05738
0.07704
0.07518
-0.01529
-0.01701
0.04922
-0.01510
-0.01882
0.04549
-0.01610
0.04916
-0.01556
0.05267
0.05539
0.05553
0.07656
0.07644
0.05509
0.05576
0.07682
0.07606
-0.01353
-0.01493
0.04873
-0.01502
0.04846
-0.01353
-0.01492
0.04887
-0.01500
0.04911
0.05717
0.05604
0.07683
0.07809
0.05602
0.05688
0.07785
0.07700
-0.01510
-0.01656
0.05051
-0.01498
-0.01648
0.04945
-0.01642
0.04928
-0.01628
0.05019
0.05564
0.05688
0.07794
0.07631
0.05665
0.05566
0.07682
0.07749
-0.01453
-0.01598
0.04917
-0.01424
-0.01568
0.05009
-0.01588
0.05007
-0.01559
0.04876
0.05488
0.05686
0.07784
0.07587
0.05680
0.05497
0.07594
0.07791
-0.01441
-0.01570
0.04829
-0.01602
0.04996
-0.01421
-0.01549
0.05023
-0.01579
0.04839
0.05685
0.05663
0.07756
0.07787
0.05718
0.05651
0.07707
0.07792
-0.01713
-0.01850
0.04994
-0.01606
-0.01744
0.04990
-0.01839
0.05069
-0.01741
0.05000
0.05500
0.05230
0.07438
0.07696
0.05122
0.05760
0.07674
0.07007
-0.01122
-0.01350
0.04732
-0.01167
0.04630
-0.01332
-0.01468
0.04537
-0.01498
0.05090
0.05703
0.05541
0.07625
0.07790
0.05572
0.05680
0.07779
0.07668
-0.01483
-0.01624
0.05044
-0.01619
0.04899
-0.01462
-0.01599
0.04876
-0.01602
0.05010
0.05533
0.05577
0.07666
0.07629
0.05542
0.05575
0.07676
0.07654
-0.01381
-0.01526
0.04865
-0.01386
-0.01530
0.04924
-0.01521
0.04864
-0.01525
0.04906
0.05659
0.05655
0.07704
0.07714
0.05559
0.05618
0.07709
0.07694
-0.01665
-0.01789
0.05015
-0.01758
-0.01889
0.05046
-0.01793
0.04871
-0.01976
0.04798
0.05329
0.05345
0.07539
0.07539
0.05463
0.05345
0.07240
0.07423
-0.01238
-0.01416
0.04586
-0.01342
0.04885
-0.01275
-0.01442
0.04655
-0.01439
0.04722
0.05547
0.05673
0.07765
0.07638
0.05649
0.05578
0.07670
0.07750
-0.01438
-0.01583
0.04878
-0.01575
0.04981
-0.01462
-0.01609
0.05012
-0.01597
0.04909
0.05685
0.05619
0.07703
0.07780
0.05550
0.05632
0.07709
0.07643
-0.01596
-0.01728
0.05016
-0.01731
0.04879
-0.01623
-0.01751
0.04956
-0.01764
0.04977
0.05687
0.05615
0.07696
0.07781
0.05620
0.05667
0.07760
0.07717
-0.01500
-0.01642
0.05019
-0.01637
0.04946
-0.01492
-0.01637
0.04954
-0.01628
0.04999
0.05584
0.05666
0.07770
0.07657
0.05648
0.05591
0.07701
0.07731
-0.01456
-0.01599
0.04931
-0.01433
-0.01577
0.04988
-0.01592
0.04990
-0.01568
0.04904
0.05488
0.05672
0.07770
0.07606
0.05663
0.05497
0.07558
0.07772
-0.01429
-0.01568
0.04797
-0.01429
-0.01561
0.05009
-0.01572
0.04987
-0.01579
0.04858
0.04755
0.05355
0.07764
0.07583
0.05449
0.07668
0.07829
0.06197
-0.02206
-0.01586
0.04861
-0.01822
0.05094
0.00339
-0.01780
0.03268
-0.04554
0.01301
0.05006
0.04596
0.07455
0.07537
0.06981
0.05290
0.06356
0.07473
0.00993
-0.01300
0.02757
-0.01876
-0.01364
0.04735
-0.03847
0.00941
-0.01496
0.04864
0.05443
0.05634
0.07685
0.07563
0.05640
0.05459
0.07532
0.07743
-0.01540
-0.01685
0.04770
-0.01654
0.04974
-0.01666
-0.01913
0.04877
-0.01778
0.04830
0.01416
-0.17966
0.19123
-0.04535
0.20962
0.05696
0.18383
-0.03003
-0.19020
0.07383
-0.11606
-0.02605
0.05221
0.06057
0.08373
0.07457
0.05887
0.05449
0.07470
0.07880
-0.01503
-0.01718
0.04379
-0.01646
0.05309
-0.01815
-0.02095
0.05144
-0.01864
0.04878
0.05717
0.05191
0.07173
0.07761
0.05343
0.05648
0.07756
0.07481
-0.01605
-0.01779
0.04973
-0.01746
0.04659
-0.01513
-0.01568
0.04581
-0.01703
0.04977
0.05617
0.05613
0.07705
0.07715
0.05625
0.05624
0.07713
0.07719
-0.01434
-0.01569
0.04944
-0.01579
0.04955
-0.01440
-0.01576
0.04944
-0.01585
0.04958
0.05708
0.05609
0.07722
0.07805
0.05618
0.05736
0.07819
0.07670
-0.01557
-0.01678
0.05037
-0.01709
0.04977
-0.01552
-0.01674
0.04917
-0.01702
0.05074
0.05699
0.05581
0.07696
0.07800
0.05603
0.05728
0.07808
0.07663
-0.01528
-0.01648
0.05025
-0.01688
0.04958
-0.01525
-0.01643
0.04892
-0.01686
0.05069
0.05435
0.05532
0.07670
0.07575
0.05525
0.05489
0.07552
0.07614
-0.01399
-0.01557
0.04716
-0.01533
0.04899
-0.01349
-0.01494
0.04859
-0.01492
0.04854
-0.01749
-0.01868
-0.01732
-0.01838
0.08535
0.08476
-0.01910
-0.01817
0.08595
-0.01677
-0.01316
0.08354
-0.01697
-0.02036
0.09008
-0.01837
-0.01618
-0.01855
-0.01689
0.08508
0.08626
-0.01616
-0.01780
0.08497
-0.01780
-0.01725
0.08638
-0.01691
-0.01662
0.08439
-0.01899
-0.01643
-0.01931
-0.01545
0.08548
0.08415
-0.01634
-0.01741
0.08448
-0.01952
-0.01599
-0.01857
-0.01718
0.08574
0.08623
-0.01926
-0.01578
-0.01850
-0.01715
0.08471
0.08608
-0.01657
-0.01893
-0.01658
-0.01737
0.08511
0.08466
-0.01981
-0.01609
0.08474
-0.01645
-0.01832
-0.01647
-0.01763
0.08523
0.08510
-0.01851
-0.01691
0.08611
-0.01763
-0.01724
0.08611
-0.01700
-0.01677
0.08466
-0.01894
-0.01833
-0.02013
-0.01848
0.08536
0.08588
-0.01871
-0.01812
0.08488
-0.01851
-0.01547
0.08320
-0.01730
-0.01985
0.08427
-0.02037
-0.01192
-0.00069
-0.05848
0.08355
0.06677
-0.01693
-0.01403
0.07944
-0.01681
-0.01697
0.08389
0.02849
-0.08937
0.01408
0.01440
-0.06812
-0.02139
-0.02085
0.02316
0.09582
0.02456
-0.08377
-0.01284
-0.01995
0.02781
0.08082
-0.02424
-0.01543
0.08557
-0.01755
-0.01735
-0.01741
-0.01687
0.08618
0.08536
-0.01720
-0.01694
0.08502
-0.01714
-0.01755
0.08590
-0.01745
-0.01694
0.08551
-0.01705
-0.01707
-0.01677
-0.01777
0.08534
0.08571
-0.01712
-0.01713
-0.01686
-0.01749
0.08547
0.08548
-0.01773
-0.01743
0.08638
-0.01695
-0.01751
-0.01650
-0.01795
0.08462
0.08290
-0.01724
-0.01833
0.08640
-0.01926
-0.01707
0.08594
-0.01820
-0.01626
0.08457
-0.01695
-0.01754
-0.01713
-0.01830
0.08369
0.08624
-0.01872
-0.01876
0.08587
-0.01847
-0.01658
0.08353
-0.01827
-0.01623
0.08467
0.04903
0.04734
0.04759
0.04814
0.04857
0.04733
0.05130
0.04653
0.04528
0.10880
-0.03688
-0.03591
0.05407
0.05199
0.04246
0.04793
0.04766
0.04923
0.04888
0.04824
0.04806
0.04729
0.04869
0.04904
0.04955
0.04824
0.04423
0.04881
0.04858
0.04751
0.04736
0.04745
0.04890
0.04781
0.04810
0.04891
0.04630
0.04977
0.04580
0.04856
0.04837
0.04653
0.04870
0.04831
0.04813
0.04756
0.04849
0.04892
0.10326
-0.02499
-0.03390
0.04746
0.04547
0.04779
0.04820
0.04863
0.04527
0.04948
0.04760
0.04746
0.05468
-0.03017
0.21218
0.03635
0.01605
-0.08549
-0.10686
-0.04087
-0.09652
-0.15166
0.01479
0.20378
-0.11791
0.06923
-0.00141
-0.00765
0.01609
0.09478
-0.10358
-0.16949
0.09586
-0.00817
-0.13858
0.01406
-0.04901
0.24883
-0.24193
-0.12337
0.01009
0.00414
-0.02587
-0.17010
0.07152
0.11993
0.07410
0.15275
-0.00006
0.07436
0.05440
0.32099
0.31206
-0.03726
0.26657
-0.18504
0.13164
0.03898
-0.02494
-0.02701
0.15135
-0.04150
-0.26856
-0.00171
0.08082
-0.18336
-0.12167
0.20096
-0.02915
-0.24758
0.22962
-0.12664
0.11537
0.06562
0.12845
-0.14676
0.03770
-0.18240
0.05066
-0.06679
-0.07611
0.04121
-0.09460
0.12954
0.03613
0.10930
0.07213
0.01104
-0.19688
0.20888
-0.03935
0.15164
0.15792
0.11869
0.02830
-0.01964
0.02854
-0.06287
-0.11516
-0.03477
-0.04208
-0.09802
0.12708
0.34729
-0.18301
-0.03057
-0.02140
0.07700
-0.10726
0.14192
0.04938
-0.00627
0.09299
-0.05913
0.01911
-0.13566
-0.00850
0.13688
0.03610
0.14359
-0.12865
0.02432
0.03061
0.10185
0.09996
-0.02473
0.14035
0.19306
-0.16097
0.11294
-0.08518
0.23069
-0.08550
-0.21113
0.19356
0.04402
0.25420
0.31639
-0.07806
0.05495
0.04289
-0.11734
-0.08403
0.09437
-0.16053
0.02047
0.05077
-0.09196
-0.09370
-0.16205
-0.04316
-0.06889
-0.07274
-0.11927
-0.27493
-0.06286
-0.27497
0.01951
-0.28120
0.03302
-0.28675
0.05797
-0.08576
-0.01783
-0.09335
0.07172
-0.06780
-0.05567
-0.17418
-0.12402
0.10000
