# vtk DataFile Version 3.0
Point representing Sub_cellular elem model
ASCII

DATASET UNSTRUCTURED_GRID
POINTS 777 float
0.01413 1.71058 0.47869 
0.00713 1.72205 -1.67693 
1.75192 1.05681 -0.61050 
1.75334 -1.09402 -0.61222 
0.01012 -1.75954 -1.68277 
0.01833 -1.75624 0.47122 
1.07922 -0.02150 1.13945 
-1.05825 -0.02319 1.15365 
1.08303 -0.01714 -2.35070 
-1.06969 -0.01816 -2.34292 
-1.72701 1.05388 -0.59413 
-1.72668 -1.09586 -0.60070 
0.01048 2.02838 -0.59846 
1.03616 1.63491 0.02982 
0.64066 0.99261 1.07113 
-0.61666 0.99748 1.07993 
-1.01001 1.63348 0.04068 
1.03464 1.64142 -1.23979 
0.64021 1.00908 -2.26624 
-0.62820 1.00813 -2.26116 
-1.01641 1.63909 -1.23019 
2.06446 -0.01858 -0.61390 
1.66845 0.61200 0.41407 
1.66960 0.61696 -1.63744 
1.03750 -1.67820 -1.24387 
1.03983 -1.67460 0.02649 
1.66996 -0.65129 0.41369 
1.67051 -0.65231 -1.63876 
0.01475 -2.06885 -0.60574 
0.64188 -1.04405 -2.26916 
-0.62673 -1.04453 -2.26505 
-1.01410 -1.67923 -1.23766 
0.64354 -1.04017 1.06540 
-0.62102 -1.05186 1.06028 
-1.00844 -1.67925 0.02997 
0.02688 0.62496 1.97089 
-1.63977 0.61096 0.43110 
-1.64228 -0.65450 0.42398 
0.00551 -0.01728 -2.65775 
-1.65124 0.61472 -1.62343 
-1.65072 -0.65343 -1.62654 
-2.03798 -0.02047 -0.59717 
0.01244 1.94357 -0.02665 
0.53505 1.74225 0.29380 
0.33676 1.41620 0.82105 
-0.30691 1.41742 0.82531 
-0.50792 1.74201 0.29968 
0.00861 1.95013 -1.17080 
0.53100 1.75223 -1.49775 
0.32976 1.42998 -2.02157 
-0.31712 1.42934 -2.01883 
-0.51537 1.75100 -1.49297 
1.45783 1.39653 -0.28439 
1.45745 1.39921 -0.93170 
1.98279 0.55255 -0.61276 
1.78168 0.87389 -0.08779 
1.78164 0.87694 -1.13462 
1.98343 -0.58968 -0.61357 
1.45963 -1.43604 -0.93454 
1.46019 -1.43460 -0.28677 
1.78298 -0.91209 -0.08886 
1.78284 -0.91318 -1.13624 
0.53414 -1.78929 -1.50294 
0.01227 -1.98898 -1.17751 
0.33221 -1.46601 -2.02605 
-0.31481 -1.46626 -2.02401 
-0.51248 -1.78981 -1.49978 
0.53966 -1.78467 0.28878 
0.01708 -1.98631 -0.03417 
0.34019 -1.46283 0.81511 
-0.30556 -1.46722 0.81435 
-0.50473 -1.78854 0.28973 
0.89930 0.49907 1.17440 
1.42359 0.30131 0.83613 
1.42515 -0.34151 0.83584 
0.90342 -0.54443 1.17092 
0.56802 -0.02795 1.41125 
-0.88159 0.49947 1.19112 
-0.88977 -0.55098 1.17244 
-0.55618 -0.03347 1.42339 
-1.39772 0.30069 0.85268 
-1.40095 -0.34392 0.84616 
0.90103 0.50650 -2.37923 
1.42610 0.30640 -2.05838 
1.42659 -0.34102 -2.05914 
0.90184 -0.54088 -2.38062 
0.57717 -0.01710 -2.57864 
-0.88876 0.50547 -2.37248 
-0.88810 -0.54161 -2.37455 
-0.56559 -0.01764 -2.57474 
-1.41080 0.30483 -2.04730 
-1.41049 -0.34220 -2.04873 
-1.43219 1.39397 -0.26995 
-1.43581 1.39625 -0.91803 
-1.75376 0.87164 -0.07073 
-1.75980 0.87411 -1.11876 
-1.95680 0.55001 -0.59532 
-1.43448 -1.43749 -0.92551 
-1.43160 -1.43776 -0.27906 
-1.75463 -0.91483 -0.07760 
-1.75922 -0.91434 -1.12364 
-1.95686 -0.59132 -0.59904 
0.56683 1.92604 -0.29587 
-0.54346 1.92490 -0.29009 
0.56539 1.92952 -0.90750 
-0.54609 1.92813 -0.90206 
0.90922 1.36467 0.60326 
1.06026 1.74051 -0.60486 
1.40319 1.18102 0.29214 
0.01345 1.02481 1.18073 
1.21139 0.87353 0.78780 
0.29483 0.51359 1.42116 
-0.88111 1.36559 0.61403 
-0.30300 0.52176 1.42206 
-1.18467 0.87449 0.80355 
-1.03794 1.73815 -0.59445 
-1.37511 1.17985 0.30728 
0.90735 1.37690 -1.81174 
1.40313 1.18813 -1.50898 
0.00557 1.03323 -2.36530 
1.21302 0.88319 -2.00315 
0.31093 0.53932 -2.55639 
-0.89272 1.37516 -1.80388 
-0.30011 0.53897 -2.55417 
-1.19845 0.88141 -1.99318 
-1.38524 1.18558 -1.49655 
1.96184 0.28587 -0.05715 
1.96200 0.28761 -1.16950 
1.96223 -0.32407 -0.05745 
1.96237 -0.32374 -1.17002 
1.77079 -0.01950 0.43657 
1.77188 -0.01762 -1.66329 
1.06353 -1.77847 -0.60885 
1.40500 -1.22395 -1.51167 
0.56917 -1.96782 -0.91306 
0.90968 -1.41265 -1.81544 
1.40587 -1.22068 0.29071 
0.57115 -1.96590 -0.30134 
0.91311 -1.40720 0.60055 
1.21468 -0.91534 0.78662 
1.21443 -0.91814 -2.00536 
-0.54262 -1.96886 -0.91014 
-0.53973 -1.96808 -0.29919 
0.00723 -1.06868 -2.36875 
0.31179 -0.57387 -2.55807 
-0.89078 -1.41329 -1.80962 
-0.29929 -0.57412 -2.55611 
-1.19740 -0.91898 -1.99707 
-1.03553 -1.78073 -0.60353 
-1.38395 -1.22484 -1.50224 
0.01369 -1.07637 1.16812 
0.29920 -0.57234 1.40134 
-0.88213 -1.41509 0.60071 
-0.30881 -0.58881 1.38633 
-1.18989 -0.92268 0.78937 
-1.37682 -1.22604 0.29636 
-1.74255 -0.02083 0.45158 
-1.93329 0.28409 -0.04010 
-1.93383 -0.32589 -0.04260 
-1.75278 -0.01928 -1.64934 
-1.93932 0.28540 -1.15311 
-1.93919 -0.32527 -1.15482 
0.01332 1.84336 0.23709 
0.27382 1.74290 0.39697 
0.17523 1.58041 0.65937 
-0.14580 1.58069 0.66139 
-0.24609 1.74292 0.39997 
0.00782 1.85272 -1.43503 
0.26824 1.75397 -1.59796 
0.16789 1.59339 -1.85915 
-0.15457 1.59304 -1.85775 
-0.25345 1.75335 -1.59562 
1.62218 1.23677 -0.44805 
1.62203 1.23797 -0.77068 
1.88390 0.81591 -0.61172 
1.78386 0.97606 -0.34991 
1.78371 0.97771 -0.87183 
1.88492 -0.85306 -0.61297 
1.62382 -1.27496 -0.77293 
1.62401 -1.27437 -0.45010 
1.78518 -1.01374 -0.35133 
1.78502 -1.01442 -0.87352 
0.27135 -1.79123 -1.60355 
0.01113 -1.89088 -1.44134 
0.17065 -1.63011 -1.86434 
-0.15188 -1.63025 -1.86334 
-0.25045 -1.79149 -1.60195 
0.27842 -1.78699 0.39074 
0.01792 -1.88753 0.22959 
0.17911 -1.62666 0.65264 
-0.14272 -1.62841 0.65263 
-0.24223 -1.78919 0.39114 
1.00543 0.23692 1.17008 
1.26280 0.13862 1.00236 
1.26378 -0.17976 1.00210 
1.00735 -0.28089 1.16897 
0.83634 -0.02351 1.28412 
-0.98362 0.23609 1.18870 
-0.98962 -0.28433 1.17781 
-0.81917 -0.02604 1.29788 
-1.23869 0.13799 1.01871 
-1.24139 -0.18153 1.01390 
1.00268 0.24393 -2.38185 
1.26443 0.14417 -2.22187 
1.26467 -0.17856 -2.22227 
1.00308 -0.27821 -2.38253 
0.84119 -0.01710 -2.48121 
-0.98997 0.24291 -2.37453 
-0.98967 -0.27908 -2.37557 
-0.82889 -0.01787 -2.47535 
-1.25026 0.14289 -2.21244 
-1.25009 -0.17970 -2.21312 
-1.59684 1.23396 -0.43248 
-1.59867 1.23496 -0.75546 
-1.75727 0.97337 -0.33310 
-1.76026 0.97474 -0.85555 
-1.85840 0.81309 -0.59459 
-1.59788 -1.27659 -0.76261 
-1.59644 -1.27675 -0.44031 
-1.75744 -1.01604 -0.33979 
-1.75976 -1.01580 -0.86131 
-1.85832 -0.85476 -0.59989 
0.01147 2.00615 -0.30798 
0.00951 2.00951 -0.88909 
0.29519 2.00219 -0.45146 
-0.27314 2.00154 -0.44853 
0.29434 2.00391 -0.74857 
-0.27429 2.00321 -0.74573 
0.79183 1.70610 0.17025 
1.26053 1.53074 -0.12340 
0.81564 1.80256 -0.13280 
0.99090 1.51537 0.32687 
1.05530 1.71269 -0.28287 
1.23068 1.42603 0.17630 
0.49524 1.21972 0.95868 
0.77764 0.75412 1.14103 
0.79050 1.18957 0.85283 
0.33658 1.01767 1.15009 
0.93652 0.95226 0.94258 
0.47228 0.76883 1.25832 
-0.46690 1.22289 0.96508 
-0.75763 0.75680 1.15473 
-0.31138 1.02232 1.15410 
-0.76312 1.19233 0.86302 
-0.45759 0.77580 1.26434 
-0.91112 0.95475 0.95616 
-0.76526 1.70534 0.17876 
-1.23465 1.52865 -0.11053 
-0.79085 1.80115 -0.12437 
-0.96340 1.51489 0.33780 
-1.03095 1.71065 -0.27220 
-1.20339 1.42471 0.18945 
0.78918 1.71450 -1.37721 
1.25974 1.53523 -1.08973 
0.81394 1.80770 -1.07394 
1.05444 1.71598 -0.92694 
0.98905 1.52490 -1.53666 
1.22978 1.43324 -1.38964 
0.48888 1.23331 -2.15882 
0.77904 0.76426 -2.34046 
0.78892 1.20404 -2.05737 
0.32741 1.02814 -2.34058 
0.93733 0.96422 -2.15029 
0.47575 0.78827 -2.43342 
-0.47667 1.23248 -2.15484 
-0.76700 0.76325 -2.33447 
-0.31606 1.02766 -2.33804 
-0.77576 1.20270 -2.05082 
-0.46452 0.78765 -2.42984 
-0.92423 0.96283 -2.14272 
-0.77239 1.71268 -1.36997 
-1.23986 1.53250 -1.07796 
-0.79525 1.80574 -1.06623 
-1.03421 1.71354 -0.91687 
-0.97271 1.52281 -1.52777 
-1.21184 1.43071 -1.37848 
2.04380 0.27152 -0.61351 
2.04411 -0.30868 -0.61391 
2.03841 0.12940 -0.32906 
2.03842 0.13010 -0.89836 
2.03857 -0.16709 -0.32924 
2.03858 -0.16674 -0.89859 
1.74296 0.75132 0.16956 
1.56071 0.46042 0.63838 
1.55126 0.90720 0.37106 
1.45798 0.75815 0.61104 
1.83743 0.44947 0.19224 
1.74440 0.30099 0.43182 
1.74335 0.75550 -1.39254 
1.56272 0.46568 -1.86170 
1.55194 0.91348 -1.59138 
1.45958 0.76531 -1.83133 
1.83799 0.45259 -1.41762 
1.74561 0.30436 -1.65748 
1.26230 -1.57198 -1.09319 
0.79223 -1.75139 -1.38189 
1.05752 -1.75332 -0.93105 
1.23215 -1.46947 -1.39303 
0.81728 -1.84516 -1.07873 
0.99167 -1.56115 -1.54060 
1.26353 -1.56949 -0.12619 
0.79608 -1.74701 0.16622 
1.05877 -1.75140 -0.28660 
1.23388 -1.46574 0.17400 
0.81971 -1.84227 -0.13721 
0.99476 -1.55632 0.32398 
1.74433 -0.79008 0.16886 
1.56233 -0.50016 0.63815 
1.83825 -0.48816 0.19187 
1.74519 -0.34008 0.43166 
1.55339 -0.94670 0.37027 
1.46039 -0.79836 0.61050 
1.74443 -0.79128 -1.39405 
1.56343 -0.50063 -1.86277 
1.83862 -0.48828 -1.41851 
1.74606 -0.33961 -1.65814 
1.55333 -0.94900 -1.59337 
1.46077 -0.80041 -1.83311 
0.01349 -2.04911 -0.89612 
0.01598 -2.04764 -0.31542 
0.29846 -2.04321 -0.75495 
0.29959 -2.04233 -0.45792 
-0.27034 -2.04390 -0.75357 
-0.26896 -2.04331 -0.45673 
0.49095 -1.26875 -2.16253 
0.78028 -0.79887 -2.34261 
0.79094 -1.23936 -2.06073 
0.93891 -0.99912 -2.15289 
0.32910 -1.06328 -2.34379 
0.47703 -0.82297 -2.43579 
-0.47477 -1.26912 -2.15945 
-0.76595 -0.79948 -2.33750 
-0.31447 -1.06353 -2.34174 
-0.77404 -1.23992 -2.05565 
-0.46335 -0.82335 -2.43277 
-0.92295 -0.99980 -2.14670 
-0.76973 -1.75217 -1.37718 
-1.23800 -1.57323 -1.08554 
-0.79235 -1.84627 -1.07418 
-0.97057 -1.56192 -1.53440 
-1.03177 -1.75482 -0.92516 
-1.21006 -1.47040 -1.38518 
0.49773 -1.26626 0.95363 
0.78143 -0.80108 1.13588 
0.79409 -1.23419 0.84947 
0.94018 -0.99653 0.93978 
0.33666 -1.06633 1.14218 
0.47466 -0.82082 1.24750 
-0.46750 -1.27440 0.95096 
-0.76524 -0.81134 1.13264 
-0.31149 -1.07490 1.13790 
-0.76589 -1.24389 0.84727 
-0.46274 -0.83501 1.23848 
-0.91685 -1.00627 0.93843 
-0.76289 -1.75171 0.16814 
-1.23370 -1.57349 -0.12068 
-0.78797 -1.84574 -0.13433 
-1.02878 -1.75472 -0.28207 
-0.96290 -1.56250 0.32602 
-1.20350 -1.47112 0.17828 
0.03603 -0.53144 1.64835 
-0.19005 -0.52434 1.90658 
0.46552 0.06711 1.67594 
0.42828 -0.47716 2.29444 
-0.41928 -0.25669 1.64812 
-0.51368 -0.09832 1.89642 
-1.53299 0.45982 0.65522 
-1.71427 0.74966 0.18668 
-1.43004 0.75784 0.62782 
-1.52273 0.90612 0.38762 
-1.71584 0.29992 0.44828 
[...]
CELL_DATA 2323
SCALARS Strain double 
LOOKUP_TABLE default 
-0.08475
-0.08979
-0.08746
-0.08576
-0.09105
-0.08719
-0.08814
-0.08716
-0.08782
-0.08778
-0.08709
-0.08865
-0.08803
-0.08805
-0.08736
-0.08849
-0.08869
-0.08751
-0.08761
-0.08703
-0.08763
-0.08751
-0.08780
-0.08734
-0.08803
-0.09038
-0.08700
-0.08743
-0.08962
-0.08839
-0.10196
-0.07198
-0.07294
-0.10101
-0.06137
-0.09672
-0.09996
-0.07295
-0.08023
-0.07190
-0.08723
-0.08762
-0.08747
-0.08734
-0.08762
-0.08768
-0.08743
-0.08760
-0.08734
-0.08780
-0.08773
-0.08903
-0.08753
-0.08646
-0.08930
-0.08794
-0.08828
-0.08841
-0.08823
-0.08799
-0.03275
-0.03307
0.06739
0.06881
0.06918
0.06765
-0.03497
-0.03392
0.06645
0.07365
0.07166
0.06515
-0.02992
-0.05787
0.09562
0.04634
0.07933
0.11837
-0.02393
-0.04124
0.04629
0.08331
0.09335
0.06990
-0.03701
-0.03593
0.06753
0.07332
0.07218
0.06612
-0.03501
-0.03511
0.06998
0.06977
0.06959
0.07004
-0.03364
-0.03365
0.06939
0.06932
0.06933
0.06944
-0.03433
-0.03430
0.06927
0.07005
0.06993
0.06922
-0.03488
-0.03510
0.06847
0.07084
0.07061
0.06863
-0.03440
-0.03450
0.06919
0.06915
0.06945
0.06896
-0.03351
-0.03263
0.06410
0.07301
0.07162
0.06455
-0.03428
-0.03432
0.07012
0.06919
0.06909
0.07017
-0.03478
-0.03455
0.07019
0.06917
0.06885
0.06992
-0.03546
-0.03672
0.07213
0.06572
0.06740
0.07338
-0.03357
-0.03315
0.07137
0.06465
0.06420
0.07216
-0.03397
-0.03403
0.06899
0.06996
0.06976
0.06914
-0.03370
-0.03356
0.06764
0.06908
0.06941
0.06734
-0.03409
-0.03400
0.06969
0.06947
0.06950
0.06973
-0.03384
-0.03387
0.06941
0.06930
0.06935
0.06941
-0.03488
-0.03484
0.06966
0.06919
0.06907
0.06953
-0.03275
-0.05426
0.08568
0.07929
0.05387
0.10012
-0.03178
-0.03843
0.06224
0.06675
0.06982
0.07294
-0.03412
-0.03421
0.06717
0.06799
0.06735
0.06742
-0.08615
0.08022
0.06639
0.15938
0.11367
-0.03504
-0.03473
0.07200
0.06403
0.06465
0.07199
-0.03529
-0.03576
0.06502
0.06981
0.06888
0.06573
-0.03415
-0.03415
0.06957
0.06981
0.06981
0.06954
-0.03339
-0.03320
0.06886
0.06881
0.06894
0.06871
-0.03449
-0.03453
0.06954
0.06927
0.06925
0.06962
-0.03545
-0.03515
0.07025
0.06770
0.06815
0.07000
-0.06326
-0.04315
0.07678
0.07872
0.03309
0.03129
-0.06751
-0.04635
0.07666
0.08469
0.03703
0.03103
-0.06565
-0.04548
0.08676
0.07422
0.03026
0.04199
-0.06396
-0.04366
0.07447
0.08405
0.03759
0.03013
-0.06912
-0.04818
0.07857
0.08341
0.03682
0.03273
-0.06502
-0.04415
0.07989
0.07872
0.03287
0.03382
-0.06632
-0.04575
0.08017
0.07987
0.03442
0.03463
-0.06513
-0.04446
0.07972
0.07942
0.03375
0.03401
-0.06586
-0.04518
0.07944
0.08043
0.03463
0.03378
-0.06598
-0.04551
0.07896
0.08060
0.03506
0.03352
-0.06495
-0.04433
0.08034
0.07709
0.03175
0.03510
-0.06676
-0.04604
0.08005
0.08025
0.03465
0.03425
-0.06600
-0.04524
0.08023
0.07894
0.03346
0.03409
-0.06594
-0.04493
0.07714
0.08081
0.03552
0.03186
-0.06555
-0.04503
0.08020
0.07894
0.03345
0.03456
-0.06643
-0.04554
0.08050
0.07899
0.03351
0.03440
-0.06670
-0.04585
0.08070
0.07948
0.03366
0.03469
-0.06572
-0.04550
0.08115
0.07683
0.03189
0.03583
-0.06549
-0.04464
0.08086
0.07667
0.03142
0.03515
-0.06519
-0.04468
0.07896
0.07962
0.03415
0.03345
-0.06575
-0.04521
0.07916
0.08007
0.03450
0.03378
-0.06546
-0.04467
0.07885
0.07990
0.03396
0.03294
-0.06577
-0.04501
0.08002
0.07968
0.03407
0.03438
-0.06533
-0.04466
0.07960
0.07958
0.03396
0.03386
-0.06624
-0.04568
0.08005
0.07962
0.03402
0.03437
-0.06890
-0.04817
0.07870
0.08192
0.03606
0.03258
-0.06490
-0.04428
0.07910
0.07670
0.03131
0.03376
-0.06575
-0.04556
0.08159
0.07636
0.02969
0.03458
-0.06889
-0.04890
0.07911
0.07867
0.03256
0.03515
-0.06570
-0.04474
0.07642
0.07886
0.03332
0.03071
-0.06090
-0.05530
0.09616
0.07084
0.04214
0.06015
-0.06121
-0.04221
0.08715
0.07275
0.02715
0.03868
-0.06186
-0.04310
0.07302
0.08472
0.03757
0.02862
-0.05944
-0.04940
0.09135
0.06621
0.03423
0.05228
-0.01411
-0.20216
0.14530
0.13290
0.02575
0.02624
-0.06219
-0.04405
0.08112
0.08073
0.03139
0.03561
-0.05451
-0.03273
0.07331
0.06787
0.01880
0.02486
-0.03220
0.13871
0.13830
0.02612
0.02572
-0.06490
-0.04576
0.08193
0.07395
0.02964
0.03806
-0.06114
-0.04449
0.06943
0.07756
0.03669
0.02790
-0.06519
-0.04450
0.07971
0.07983
0.03406
0.03405
-0.06573
-0.04513
0.07971
0.08037
0.03469
0.03404
-0.06553
-0.04488
0.08030
0.07962
0.03388
0.03451
-0.06537
-0.04476
0.07971
0.08005
0.03431
0.03411
-0.06565
-0.04498
0.07991
0.08011
0.03447
0.03427
-0.06574
-0.04511
0.08014
0.07957
0.03400
0.03457
-0.06542
-0.04473
0.07963
0.07983
0.03411
0.03392
-0.06564
-0.04498
0.08009
0.07970
0.03410
0.03441
-0.06524
-0.04441
0.07946
0.07962
0.03382
0.03367
-0.06591
-0.04529
0.07993
0.07973
0.03414
0.03438
-0.06607
-0.04596
0.08152
0.07641
0.03169
0.03598
-0.06702
-0.04617
0.08132
0.07874
0.03315
0.03543
-0.06568
-0.04524
0.07597
0.08124
0.03508
0.03063
-0.06443
-0.04386
0.07868
0.07867
0.03310
0.03304
-0.06743
-0.04658
0.08115
0.07861
0.03280
0.03519
-0.06610
-0.04558
0.07894
0.07941
0.03394
0.03359
-0.06627
-0.04537
0.07847
0.07914
0.03297
0.03211
-0.06685
-0.04651
0.07948
0.07799
0.03223
0.03359
-0.06617
-0.04542
0.07931
0.07962
0.03395
0.03367
-0.06617
-0.04571
0.07828
0.07963
0.03392
0.03299
0.06963
0.06936
0.01979
0.02225
0.01842
0.01699
0.07095
0.07057
0.01796
0.02251
0.01892
0.01515
0.07205
0.07232
0.01904
0.02093
0.01802
0.01570
0.07044
0.07073
0.01982
0.02156
0.01862
0.01634
0.07978
0.08623
0.01705
0.01620
0.01822
0.00846
0.07314
0.07259
0.01840
0.02084
0.01735
0.01551
0.06660
0.06621
0.02245
0.02224
0.01912
0.02093
0.07788
0.08213
0.02830
0.02224
0.01596
0.02342
0.07944
0.07769
0.02846
0.01123
0.00743
0.02313
0.16511
-0.16466
0.11401
0.02601
0.09197
0.02477
0.08062
0.07768
0.01454
0.01914
0.01206
0.01537
0.11759
-0.10845
0.04351
0.02533
0.11610
0.02487
0.07356
0.07427
0.02311
0.01515
0.01121
0.02041
0.07404
0.07363
0.01868
0.01918
0.01555
0.01600
0.06719
0.06642
0.02275
0.02087
0.01687
0.02012
0.07197
0.07191
0.02097
0.02005
0.01683
0.01781
0.07257
0.07259
0.02044
0.01987
0.01677
0.01718
0.07182
0.07180
0.02035
0.02088
0.01766
0.01721
0.07181
0.07177
0.02033
0.02100
0.01782
0.01714
0.07202
0.07207
0.02036
0.02080
0.01764
0.01718
0.07273
0.07292
0.02001
0.01992
0.01679
0.01670
0.07237
0.07233
0.02034
0.02043
0.01724
0.01717
0.07163
0.07151
0.02103
0.02005
0.01682
0.01802
0.07120
0.07124
0.02157
0.01957
0.01656
0.01821
0.07215
0.07292
0.01998
0.01846
0.01540
0.01713
0.07153
0.07153
0.02017
0.02093
0.01775
0.01689
0.07242
0.07304
0.01995
0.01818
0.01531
0.01704
0.07138
0.07139
0.02046
0.02067
0.01766
0.01715
0.06778
0.06786
0.02206
0.02164
0.01762
0.01762
0.07269
0.07262
0.02031
0.02011
0.01688
0.01711
0.07315
0.07378
0.01955
0.01884
0.01620
0.01576
0.07190
0.07209
0.02080
0.01993
0.01691
0.01750
0.07094
0.07052
0.02102
0.02003
0.01658
0.01814
0.07228
0.07222
0.02029
0.02034
0.01705
0.01727
0.06686
0.06632
0.02270
0.02141
0.01788
0.02011
0.07071
0.07120
0.02205
0.01793
0.01518
0.01850
0.07783
0.08126
0.01774
0.01576
0.01695
0.00946
0.07620
0.07788
0.01311
0.02321
0.02048
0.00900
0.07178
0.07190
0.02071
0.02060
0.01744
0.01741
0.07216
0.07223
0.01907
0.02033
0.01709
0.01579
0.06961
0.06952
0.02046
0.01992
0.01697
0.01744
0.07199
0.07195
0.02072
0.02035
0.01725
0.01756
0.07228
0.07231
0.02044
0.02055
0.01732
0.01726
0.07177
0.07174
0.02013
0.02063
0.01739
0.01695
0.07193
0.07199
0.02042
0.02074
0.01757
0.01725
0.07194
0.07199
0.02020
0.02048
0.01734
0.01700
0.07135
0.07099
0.02045
0.01904
0.01578
0.01740
0.07191
0.07182
0.02006
0.02022
0.01699
0.01696
0.07622
0.08429
0.01864
0.01864
0.01618
0.01125
0.13171
0.18628
0.10279
0.02516
0.06567
0.02525
0.06869
0.06916
0.01962
0.01807
0.01476
0.01729
0.08179
-0.15792
0.04609
0.02517
0.06735
0.02504
0.06945
0.06781
0.01299
0.02333
0.01808
0.01171
0.07091
0.07198
0.01753
0.01878
0.01625
0.01320
0.06865
0.07014
0.02264
0.01561
0.01356
0.01819
0.07382
0.07319
0.01757
0.01855
0.01456
0.01511
0.06890
0.06958
0.01950
0.02031
0.01745
0.01577
0.07159
0.07170
0.01990
0.02082
0.01780
0.01664
0.07109
0.07092
0.01950
0.02131
0.01796
0.01649
0.07223
0.07236
0.01993
0.01957
0.01655
0.01664
0.06817
0.07021
-0.00729
-0.00906
0.07571
-0.00265
-0.00776
0.06585
-0.00919
-0.00113
0.07436
-0.00332
-0.01012
-0.00294
-0.00593
0.07126
0.07031
-0.00667
-0.00598
0.07106
-0.00543
-0.00531
0.07060
-0.00627
-0.00593
0.07166
-0.00526
-0.00610
-0.00508
-0.00622
0.07116
0.06936
-0.00746
-0.00572
0.07126
-0.00524
-0.00561
0.07172
0.07003
-0.00648
-0.00559
-0.00491
-0.00703
-0.00668
-0.00567
0.07181
0.07019
-0.00622
-0.00528
0.07182
0.07062
-0.00603
-0.00517
0.06894
-0.00751
-0.00503
-0.00754
-0.00528
-0.00617
-0.00666
0.07045
0.07126
-0.00554
-0.00608
0.07122
-0.00585
-0.00657
0.07080
-0.00585
-0.00551
0.07088
-0.00596
-0.00614
-0.00577
-0.00550
0.07035
0.07149
-0.00458
-0.00635
0.06786
-0.00884
-0.00630
0.06851
-0.00954
-0.00700
0.07134
-0.00562
-0.00620
-0.00578
-0.00922
0.07085
0.09822
-0.00637
-0.01262
0.05704
-0.00774
-0.00180
0.06982
-0.00229
-0.00691
0.09484
-0.00872
-0.01510
-0.03285
-0.03033
0.08944
0.06855
-0.01875
-0.00557
0.10206
0.05420
-0.03588
-0.00716
-0.02389
-0.02865
0.06097
-0.00772
-0.00074
-0.00188
-0.01226
0.07100
0.07114
-0.00581
-0.00583
0.07148
-0.00529
-0.00575
0.07092
-0.00591
-0.00543
0.07132
-0.00560
-0.00581
-0.00541
-0.00558
0.07131
0.07082
-0.00585
-0.00541
0.07086
0.07115
-0.00577
-0.00599
-0.00585
-0.00552
0.07101
-0.00595
-0.00610
-0.00567
-0.00550
0.07233
0.06822
-0.00788
-0.00485
0.06987
-0.00649
-0.00448
0.07219
-0.00540
-0.00843
0.06997
-0.00702
-0.00718
-0.00650
-0.00459
0.07005
0.07046
-0.00622
-0.00640
0.07068
-0.00646
-0.00721
0.06986
-0.00696
-0.00627
0.07062
-0.00607
-0.00626
-0.00638
-0.00669
0.05566
0.05397
0.07462
0.07630
0.05464
0.05583
0.07715
0.07579
-0.01357
-0.01454
0.04937
-0.01327
-0.01431
0.04763
-0.01526
0.04777
-0.01493
0.04880
0.05885
0.05270
0.07407
0.08169
0.05333
0.05865
0.07848
0.07354
-0.01491
-0.01677
0.05111
-0.01430
-0.01786
0.04344
-0.01574
0.04727
-0.01504
0.05398
0.04618
0.06361
0.08623
0.07319
0.07010
0.08711
0.09168
0.08400
-0.02811
-0.01752
0.05266
0.00731
-0.01446
0.04184
-0.02775
0.06088
-0.06552
0.00120
0.05065
0.04512
0.07540
0.07952
0.06242
0.06122
0.07658
0.07896
0.01953
-0.01140
0.01947
-0.02057
-0.01430
0.04822
-0.02853
0.00274
-0.02034
0.05559
0.05890
0.05421
0.07560
0.08066
0.05385
0.05915
0.07945
0.07362
-0.01684
-0.01867
0.05166
-0.01659
-0.01985
0.04528
-0.01753
0.04801
-0.01689
0.05352
0.05655
0.05682
0.07768
0.07731
0.05679
0.05640
0.07751
0.07776
-0.01589
-0.01716
0.05012
-0.01745
0.04995
-0.01529
-0.01662
0.05018
-0.01676
0.04960
0.05603
0.05620
0.07712
0.07696
0.05620
0.05617
0.07711
0.07721
-0.01411
-0.01550
0.04934
-0.01420
-0.01557
0.04958
-0.01551
0.04951
-0.01561
0.04950
0.05676
0.05597
0.07694
0.07783
0.05611
0.05679
0.07762
0.07698
-0.01473
-0.01615
0.05002
-0.01494
-0.01636
0.04921
-0.01610
0.04947
-0.01630
0.05028
0.05743
0.05554
0.07629
0.07819
0.05523
0.05752
0.07872
0.07626
-0.01560
-0.01673
0.05099
-0.01731
0.04829
-0.01537
-0.01659
0.04896
-0.01695
0.05065
0.05586
0.05599
0.07729
0.07659
0.05573
0.05627
0.07760
0.07652
-0.01563
-0.01699
0.04952
-0.01447
-0.01582
0.04916
-0.01720
0.04932
-0.01600
0.04939
0.05851
0.05278
0.07330
0.07868
0.04957
0.05944
0.08262
0.07083
-0.01226
-0.01476
0.05282
-0.01247
0.04196
-0.01456
-0.01631
0.04654
-0.01551
0.05086
0.05582
0.05690
0.07778
0.07661
0.05691
0.05606
0.07705
0.07788
-0.01476
-0.01610
0.04924
-0.01617
0.05021
-0.01490
-0.01624
0.05027
-0.01629
0.04933
0.05570
0.05679
0.07806
0.07691
0.05681
0.05594
0.07657
0.07757
-0.01533
-0.01705
0.04857
-0.01501
-0.01659
0.04994
-0.01647
0.05046
-0.01625
0.04949
0.05382
0.05907
0.07925
0.07364
0.05878
0.05369
0.07564
0.08052
-0.01665
-0.01719
0.04810
-0.01580
-0.01625
0.05340
-0.01866
0.05145
-0.01932
0.04418
0.05254
0.05801
0.07865
0.07299
0.05879
0.05030
0.07129
0.08111
-0.01464
-0.01625
0.04644
-0.01560
0.05074
-0.01306
-0.01470
0.05179
-0.01448
0.04274
0.05659
0.05579
0.07655
0.07731
0.05592
0.05665
0.07775
0.07697
-0.01462
-0.01593
0.05011
-0.01604
0.04916
-0.01445
-0.01576
0.04928
-0.01589
0.04983
0.05601
0.05464
0.07585
0.07725
0.05393
0.05607
0.07666
0.07456
-0.01383
-0.01547
0.04903
-0.01498
0.04763
-0.01448
-0.01590
0.04776
-0.01588
0.04970
0.05626
0.05653
0.07744
0.07719
0.05648
0.05629
0.07718
0.07746
-0.01454
-0.01605
0.04952
-0.01583
0.04980
-0.01457
-0.01605
0.04989
-0.01589
0.04962
0.05613
0.05612
0.07709
0.07702
0.05624
0.05609
0.07708
0.07720
-0.01433
-0.01572
0.04954
-0.01443
-0.01579
0.04944
-0.01574
0.04959
-0.01586
0.04939
0.05603
0.05645
0.07747
0.07700
0.05631
0.05587
0.07658
0.07707
-0.01571
-0.01708
0.04926
-0.01511
-0.01652
0.04969
-0.01705
0.04978
-0.01645
0.04930
0.04836
0.05757
0.08112
0.07371
0.05960
0.08580
0.08883
0.06827
-0.02648
-0.01789
0.05198
-0.02458
0.05503
-0.00169
-0.01553
0.03953
-0.05553
0.01836
0.04509
0.05367
0.08104
0.07170
0.06692
0.04303
0.05186
0.07207
-0.00101
-0.02012
0.02353
-0.01756
-0.01722
0.05039
-0.02474
0.03077
-0.01184
0.04178
0.05491
0.05372
0.07423
0.07518
0.05451
0.05392
0.07567
0.07600
-0.01454
-0.01585
0.04873
-0.01605
0.04770
-0.01473
-0.01622
0.04732
-0.01667
0.04614
-0.03131
-0.07582
-0.00619
0.00240
0.03566
-0.05324
-0.06875
0.08976
-0.04226
-0.10580
-0.09851
0.13259
0.05077
0.05945
0.08015
0.07195
0.05799
0.05204
0.07246
0.07913
-0.01358
-0.01524
0.04354
-0.01496
0.05092
-0.01716
-0.01958
0.05165
-0.01771
0.04638
0.05746
0.05123
0.07045
0.07631
0.05335
0.05573
0.07711
0.07457
-0.01797
-0.01981
0.05057
-0.01873
0.04697
-0.01498
-0.01540
0.04557
-0.01676
0.04834
0.05662
0.05639
0.07733
0.07755
0.05632
0.05659
0.07753
0.07721
-0.01468
-0.01607
0.04996
-0.01608
0.04966
-0.01464
-0.01603
0.04967
-0.01604
0.04993
0.05581
0.05568
0.07675
0.07687
0.05547
0.05549
0.07632
0.07625
-0.01377
-0.01535
0.04905
-0.01498
0.04895
-0.01389
-0.01546
0.04890
-0.01510
0.04897
0.05619
0.05649
0.07734
0.07709
0.05624
0.05592
0.07687
0.07723
-0.01494
-0.01631
0.04955
-0.01638
0.04951
-0.01513
-0.01648
0.04994
-0.01660
0.04921
0.05460
0.05711
0.07839
0.07592
0.05656
0.05500
0.07549
0.07738
-0.01610
-0.01795
0.04729
-0.01708
0.05017
-0.01553
-0.01714
0.05024
-0.01673
0.04861
-0.01508
-0.01840
-0.01502
-0.02023
0.08267
0.08431
-0.01958
-0.01948
0.09250
-0.01502
-0.01267
0.08189
-0.01781
-0.02093
0.08942
-0.01668
-0.01824
-0.01635
-0.01769
0.08581
0.08438
-0.01776
-0.01671
0.08552
-0.01675
-0.01737
0.08529
-0.01760
-0.01765
0.08635
-0.01670
-0.01881
-0.01618
-0.01674
0.08620
0.08147
-0.01804
-0.01720
0.08610
-0.01829
-0.01776
-0.01706
-0.01731
0.08623
0.08488
-0.01868
-0.01756
-0.01741
-0.01698
0.08646
0.08481
-0.01861
-0.01779
-0.01797
-0.01682
0.08693
0.08545
-0.01695
-0.01621
0.08126
-0.01747
-0.01686
-0.01734
-0.01738
0.08454
0.08581
-0.01716
-0.01818
0.08578
-0.01733
-0.01693
0.08548
-0.01696
-0.01768
0.08534
-0.02018
-0.01600
-0.02105
-0.01845
0.08456
0.08947
-0.01714
-0.01726
0.08262
-0.01707
-0.01997
0.08556
-0.02095
-0.01685
0.08235
-0.02622
-0.01329
0.01903
-0.06567
0.09546
0.02384
-0.01625
-0.01601
0.08057
-0.01648
-0.02289
0.09297
0.02018
-0.06449
0.01509
0.00571
-0.06977
-0.01983
-0.01684
0.06291
0.08811
0.02187
-0.08630
-0.01099
-0.02088
0.03028
0.07874
-0.02200
-0.01485
0.08257
-0.01672
-0.01733
-0.01682
-0.01727
0.08543
0.08563
-0.01743
-0.01722
0.08619
-0.01708
-0.01695
0.08542
-0.01704
-0.01723
0.08585
-0.01729
-0.01728
-0.01746
-0.01672
0.08590
0.08522
-0.01696
-0.01724
-0.01709
-0.01748
0.08548
0.08560
-0.01682
-0.01762
0.08534
-0.01820
-0.01888
-0.01736
-0.01625
0.08737
0.08101
-0.01832
-0.01603
0.08461
-0.01829
-0.01958
0.08714
-0.01615
-0.01853
0.08445
-0.01811
-0.01747
-0.01757
-0.01767
0.08455
0.08527
-0.01826
-0.01926
0.08508
-0.01798
-0.01794
0.08333
-0.01793
-0.01778
0.08564
0.04629
0.04844
0.04923
0.04719
0.04670
0.05002
0.05579
0.04085
0.05207
0.11501
-0.02636
-0.05733
0.05348
0.04883
0.04255
0.04827
0.04893
0.04804
0.04823
0.04837
0.04872
0.04920
0.04783
0.04774
0.04859
0.04875
0.04541
0.04806
0.04785
0.04897
0.04964
0.04681
0.04739
0.04841
0.04858
0.04816
0.04156
0.05322
0.05077
0.04856
0.04640
0.04780
0.04835
0.04866
0.04835
0.04809
0.04820
0.04835
0.09496
-0.00705
-0.02372
0.04324
0.04678
0.04779
0.04617
0.04947
0.04521
0.04785
0.04752
0.04882
-0.10310
-0.07303
0.16292
0.06303
0.02678
-0.00310
-0.14338
0.03830
-0.06596
-0.02962
0.03549
0.00532
0.53658
0.04756
0.00543
-0.11947
0.17897
-0.05481
0.13972
-0.11439
0.20599
-0.07641
-0.06945
-0.08644
0.15916
0.14563
0.06925
0.06752
-0.01547
-0.17941
0.44750
-0.05956
0.11030
-0.02409
0.21320
-0.09307
0.05734
0.01616
-0.05810
-0.08368
-0.12870
-0.22508
-0.07584
0.16868
0.09892
-0.08070
0.16879
0.12469
0.17006
0.00595
-0.02411
-0.04784
-0.02480
0.04862
-0.11058
0.06149
-0.03001
-0.03098
0.06079
-0.05271
-0.02468
-0.20883
-0.11890
0.13076
-0.11354
0.03726
0.10348
-0.07091
0.02511
0.27262
0.08981
0.02741
-0.05622
-0.04619
0.00020
0.01288
0.02657
0.05325
-0.03701
-0.01850
0.07678
0.05698
-0.01524
0.03678
-0.12447
-0.01503
-0.02880
-0.03308
-0.14039
-0.01860
0.38728
-0.19464
-0.04786
-0.13512
0.07033
0.01874
0.09893
0.26666
-0.00682
-0.07178
-0.18928
0.11344
-0.01977
-0.02542
-0.08128
0.04187
0.30936
-0.07302
0.01829
0.08179
-0.03259
-0.09486
0.04398
-0.02143
0.08684
0.09648
0.24880
-0.12864
-0.01055
0.03521
0.15000
-0.02904
-0.08424
0.05817
0.09434
0.01322
0.07132
0.11855
-0.04792
-0.14337
0.19279
-0.11807
-0.04697
0.02895
-0.02788
0.08668
0.08902
0.05236
0.08791
-0.15369
-0.00745
-0.07270
0.07951
-0.05787
0.13435
-0.14854
0.01853
-0.05953
0.04249
-0.11934
-0.02708
-0.13389
0.05897
-0.11394
0.04561
0.13459
0.06995
-0.00660
-0.04000
0.14924
-0.12339
0.08181
0.13443
0.21161
0.22589
-0.18054
0.14198
0.09509
-0.07176
0.11324
0.09591
0.20511
0.18128
0.11323
-0.00875
-0.10827
0.15970
-0.13776
0.05099
-0.04198
-0.06146
0.10397
0.00619
0.03178
0.05769
0.02448
-0.00105
0.10936
0.12654
-0.07205
-0.04609
-0.01662
-0.01482
-0.03390
0.06250
-0.09875
-0.08722
-0.00373
-0.08898
-0.10769
-0.16219
0.33592
0.34078
0.07956
0.10163
0.10960
0.15138
0.07888
0.01986
0.05150
-0.04728
-0.01143
-0.08860
-0.04614
-0.08226
-0.11326
-0.01957
0.02628
0.01817
0.14393
-0.12021
-0.09695
-0.00157
0.06946
-0.04009
0.01062
0.20244
0.02532
0.00763
-0.00388
-0.01096
0.04877
0.07399
-0.11261
0.02422
0.16156
0.07945
-0.05631
-0.06031
0.25738
-0.08325
0.00450
0.13200
0.20397
-0.10978
0.27392
0.13401
0.15174
0.08222
-0.02128
-0.12482
0.13389
-0.04767
0.03131
-0.09090
-0.03256
-0.02948
0.05167
0.06955
0.32828
0.33350
0.00056
0.21184
-0.04518
-0.05620
-0.02377
-0.12281
0.00943
-0.01196
0.13611
-0.10081
-0.04987
-0.22874
0.17239
-0.02668
0.00311
0.10981
0.03602
-0.08987
0.19318
-0.03778
0.02933
0.01664
-0.15634
0.04844
0.07412
-0.06088
-0.09093
0.07587
-0.12083
0.14970
0.02239
0.08955
-0.13873
-0.00804
-0.06082
0.05431
0.07561
-0.11165
0.04513
0.16208
0.22193
0.27371
-0.09239
0.19486
0.12177
-0.09044
0.36634
0.00528
0.14539
0.30780
-0.13291
-0.04990
0.14336
-0.19974
0.27278
-0.19993
-0.20721
0.26338
0.02654
0.02393
0.00415
-0.00735
0.09454
0.32761
0.07076
0.14484
-0.05379
-0.04613
-0.03644
0.15672
-0.10135
0.15931
-0.01869
-0.00185
0.00153
-0.16973
0.23435
0.10314
0.22581
-0.12719
0.12071
-0.05960
0.10130
-0.02036
-0.01046
-0.03075
-0.09636
-0.06124
-0.08949
-0.11816
0.15873
-0.18836
-0.01751
-0.00979
0.03283
0.01229
-0.00534
-0.22240
0.21910
-0.03015
-0.01426
0.17404
0.27480
0.15339
-0.16828
-0.10949
0.01246
-0.05497
0.01692
-0.10593
0.00288
-0.17189
-0.08780
-0.08807
-0.10317
-0.15042
-0.00993
-0.13211
0.34757
-0.18569
-0.10180
-0.05944
-0.00961
-0.01467
0.03513
0.01198
-0.03853
0.03367
0.02233
-0.08558
-0.02133
-0.10948
0.05972
-0.11230
-0.01545
-0.08514
-0.01970
-0.13936
0.00721
-0.15357
-0.02607
-0.15043
-0.12086
-0.15647
-0.12282
-0.22234
-0.06873
-0.20594
-0.04858
0.10000
