# vtk DataFile Version 3.0
Point representing Sub_cellular elem model
ASCII

DATASET UNSTRUCTURED_GRID
POINTS 656 float
-0.00056 1.73678 1.01769 
0.00178 1.74041 -1.13095 
1.74068 1.07503 -0.04891 
1.74260 -1.07504 -0.04737 
0.00331 -1.74381 -1.12615 
-0.00084 -1.73872 1.02326 
1.05912 -0.00134 1.71616 
-1.06781 0.00233 1.70622 
1.08008 -0.00212 -1.79069 
-1.07339 -0.00330 -1.79410 
-1.74214 1.07410 -0.05713 
-1.73981 -1.07700 -0.05240 
0.00020 2.05176 -0.05634 
1.02397 1.65618 0.58225 
0.62708 1.01792 1.61965 
-0.63830 1.02747 1.60421 
-1.02691 1.65850 0.57452 
1.02812 1.65984 -0.68656 
0.63752 1.02423 -1.71201 
-0.63182 1.02362 -1.71430 
-1.02644 1.65951 -0.69141 
2.05202 0.00052 -0.04725 
1.65153 0.63140 0.98032 
1.66353 0.63344 -1.07575 
1.02962 -1.66159 -0.68291 
1.02656 -1.65820 0.58451 
1.65523 -0.63037 0.97979 
1.66412 -0.63528 -1.07446 
0.00176 -2.05287 -0.05059 
0.63833 -1.02869 -1.70956 
-0.63085 -1.02940 -1.71142 
-1.02434 -1.66261 -0.68577 
0.63050 -1.02570 1.61365 
-0.63597 -1.02237 1.61442 
-1.02537 -1.65826 0.58219 
0.27255 0.17660 2.42476 
-1.65817 0.63099 0.96977 
-1.65591 -0.63215 0.97494 
0.00381 -0.00306 -2.10291 
-1.65991 0.63165 -1.08184 
-1.65892 -0.63727 -1.07959 
-2.05162 -0.00216 -0.05474 
-0.00029 1.96875 0.51398 
0.52205 1.76637 0.83941 
0.32195 1.44228 1.36273 
-0.32427 1.44492 1.35815 
-0.52372 1.76850 0.83477 
0.00096 1.97106 -0.62694 
0.52544 1.77076 -0.94861 
0.32617 1.44631 -1.47146 
-0.32141 1.44607 -1.47274 
-0.52257 1.77057 -0.95097 
1.44591 1.41573 0.27360 
1.44894 1.41740 -0.37405 
1.97054 0.57090 -0.04781 
1.76707 0.89270 0.47568 
1.77311 0.89432 -0.57269 
1.97172 -0.57020 -0.04710 
1.45064 -1.41830 -0.37148 
1.44863 -1.41644 0.27543 
1.76988 -0.89208 0.47635 
1.77419 -0.89497 -0.57111 
0.52692 -1.77334 -0.94414 
0.00268 -1.97315 -0.62143 
0.32735 -1.45041 -1.46776 
-0.32010 -1.45077 -1.46868 
-0.52079 -1.77387 -0.94561 
0.52322 -1.76902 0.84310 
0.00057 -1.96984 0.51965 
0.32172 -1.44630 1.36542 
-0.32581 -1.44563 1.36510 
-0.52366 -1.76875 0.84194 
0.88582 0.51865 1.74050 
1.40614 0.32079 1.40713 
1.40963 -0.32003 1.40533 
0.89282 -0.52508 1.73249 
0.54009 -0.01052 1.98939 
-0.90022 0.52556 1.72609 
-0.89487 -0.51868 1.73247 
-0.55543 0.01252 1.97331 
-1.41477 0.32091 1.39635 
-1.41242 -0.32082 1.40023 
0.89848 0.52130 -1.82161 
1.42193 0.32202 -1.49737 
1.42220 -0.32516 -1.49666 
0.89890 -0.52579 -1.82041 
0.57521 -0.00266 -2.02108 
-0.89213 0.52036 -1.82460 
-0.89161 -0.52679 -1.82312 
-0.56783 -0.00328 -2.02287 
-1.41647 0.32046 -1.50212 
-1.41607 -0.32678 -1.50110 
-1.44882 1.41642 0.26516 
-1.44886 1.41684 -0.38101 
-1.77113 0.89210 0.46631 
-1.77189 0.89267 -0.58000 
-1.97138 0.56891 -0.05607 
-1.44647 -1.41978 -0.37553 
-1.44629 -1.41751 0.27170 
-1.76881 -0.89407 0.47125 
-1.77016 -0.89713 -0.57646 
-1.96994 -0.57278 -0.05342 
0.55616 1.94875 0.25092 
-0.55683 1.94984 0.24715 
0.55738 1.95038 -0.35972 
-0.55645 1.95065 -0.36275 
0.89523 1.38729 1.15504 
1.05090 1.76058 -0.05220 
1.38854 1.20077 0.85153 
-0.00105 1.05445 1.71288 
1.19586 0.89396 1.34967 
0.29760 0.54411 1.95404 
-0.90080 1.39204 1.14456 
-0.31013 0.57065 1.92920 
-1.20601 0.89792 1.33650 
-1.05162 1.76128 -0.05827 
-1.39454 1.20288 0.84097 
0.90309 1.39349 -1.25785 
1.39723 1.20505 -0.95102 
0.00302 1.04826 -1.81471 
1.20911 0.89888 -1.44520 
0.30908 0.55368 -2.00188 
-0.89915 1.39280 -1.26149 
-0.30218 0.55336 -2.00289 
-1.20429 0.89767 -1.44960 
-1.39452 1.20388 -0.95675 
1.94628 0.30547 0.50963 
1.95292 0.30525 -0.60472 
1.94747 -0.30356 0.50977 
1.95331 -0.30562 -0.60419 
1.75403 0.00129 1.00516 
1.76551 -0.00089 -1.09939 
1.05288 -1.76180 -0.04887 
1.39833 -1.20692 -0.94849 
0.55904 -1.95190 -0.35502 
0.90422 -1.39654 -1.25457 
1.39277 -1.20217 0.85173 
0.55777 -1.95019 0.25527 
0.89861 -1.39154 1.15505 
1.20182 -0.89706 1.34678 
1.20984 -0.90210 -1.44318 
-0.55452 -1.95231 -0.35653 
-0.55540 -1.95032 0.25384 
0.00389 -1.05363 -1.81201 
0.30953 -0.55923 -2.00055 
-0.89761 -1.39753 -1.25716 
-0.30171 -0.55956 -2.00146 
-1.20323 -0.90348 -1.44678 
-1.04940 -1.76250 -0.05162 
-1.39277 -1.20851 -0.95256 
-0.00438 -1.05503 1.71400 
0.29473 -0.55773 1.93436 
-0.90017 -1.39045 1.15393 
-0.31248 -0.54768 1.93830 
-1.20274 -0.89552 1.34562 
-1.39221 -1.20251 0.84882 
-1.75777 -0.00123 0.99726 
-1.94915 0.30314 0.50106 
-1.94819 -0.30636 0.50287 
-1.76106 -0.00297 -1.10527 
-1.95080 0.30294 -0.61187 
-1.95017 -0.30810 -0.61064 
-0.00041 1.86914 0.77694 
0.26003 1.76828 0.93909 
0.16028 1.60659 1.19942 
-0.16178 1.60753 1.19767 
-0.26123 1.76946 0.93675 
0.00137 1.87235 -0.89014 
0.26284 1.77244 -1.05053 
0.16352 1.61065 -1.31116 
-0.15932 1.61056 -1.31182 
-0.25957 1.77233 -1.05167 
1.61052 1.25540 0.11197 
1.61220 1.25612 -0.21094 
1.87210 0.83407 -0.04830 
1.77089 0.99459 0.21256 
1.77384 0.99550 -0.30999 
1.87372 -0.83372 -0.04719 
1.61404 -1.25658 -0.20891 
1.61290 -1.25565 0.11369 
1.77321 -0.99427 0.21372 
1.77530 -0.99574 -0.30840 
0.26435 -1.77544 -1.04583 
0.00303 -1.87508 -0.88494 
0.16488 -1.61444 -1.30688 
-0.15789 -1.61462 -1.30734 
-0.25793 -1.77571 -1.04657 
0.26038 -1.77070 0.94377 
-0.00012 -1.87061 0.78256 
0.15988 -1.60946 1.20408 
-0.16277 -1.60928 1.20378 
-0.26153 -1.77054 0.94317 
0.98784 0.25598 1.74456 
1.24460 0.15812 1.57657 
1.24720 -0.15816 1.57471 
0.99327 -0.26007 1.73962 
0.81438 -0.00366 1.86252 
-0.99711 0.26172 1.73366 
-0.99466 -0.25557 1.73615 
-0.82496 0.00563 1.85050 
-1.25279 0.15984 1.56671 
-1.25139 -0.15801 1.56854 
0.99998 0.25880 -1.82292 
1.26094 0.15945 -1.66133 
1.26107 -0.16317 -1.66097 
1.00019 -0.26319 -1.82233 
0.83882 -0.00240 -1.92239 
-0.99343 0.25773 -1.82615 
-0.99316 -0.26429 -1.82541 
-0.83174 -0.00331 -1.92501 
-1.25481 0.15807 -1.66541 
-1.25462 -0.16458 -1.66493 
-1.61283 1.25520 0.10360 
-1.61295 1.25537 -0.21866 
-1.77362 0.99385 0.20380 
-1.77396 0.99413 -0.31781 
-1.87334 0.83262 -0.05666 
-1.61052 -1.25830 -0.21347 
-1.61027 -1.25722 0.10925 
-1.77127 -0.99625 0.20860 
-1.77189 -0.99785 -0.31365 
-1.87137 -0.83602 -0.05286 
-0.00009 2.03052 0.23340 
0.00056 2.03171 -0.34615 
0.28485 2.02538 0.09283 
-0.28486 2.02586 0.09100 
0.28530 2.02610 -0.20365 
-0.28462 2.02636 -0.20529 
0.77935 1.72877 0.71938 
1.24848 1.55081 0.43204 
0.80435 1.82459 0.41670 
0.97763 1.53722 0.87911 
1.04446 1.73340 0.26966 
1.21734 1.44650 0.73201 
0.48047 1.24517 1.50348 
0.76491 0.77709 1.69722 
0.77629 1.21328 1.40359 
0.32160 1.04435 1.69127 
0.92223 0.97461 1.49904 
0.46132 0.79690 1.80202 
-0.48565 1.25105 1.49401 
-0.77924 0.78480 1.68178 
-0.32809 1.05191 1.68087 
-0.78404 1.21995 1.39103 
-0.47734 0.81132 1.78250 
-0.93325 0.98091 1.48499 
-0.78172 1.73132 0.71286 
-1.25162 1.55241 0.42376 
-0.80597 1.82635 0.41095 
-0.98174 1.54060 0.87019 
-1.04631 1.73484 0.26285 
-1.22188 1.44900 0.72262 
0.78326 1.73301 -0.82611 
1.25235 1.55352 -0.53428 
0.80677 1.82726 -0.52336 
1.04656 1.73529 -0.37405 
0.98375 1.54240 -0.98307 
1.22370 1.45077 -0.83394 
0.48585 1.24894 -1.60660 
0.77649 0.77914 -1.78443 
0.78553 1.21984 -1.50327 
0.32493 1.04316 -1.78817 
0.93415 0.97960 -1.59423 
0.47356 0.80293 -1.87908 
-0.48058 1.24852 -1.60842 
-0.77043 0.77836 -1.78710 
-0.31898 1.04285 -1.78932 
-0.78064 1.21915 -1.50625 
-0.46720 0.80246 -1.88070 
-0.92885 0.97870 -1.59761 
-0.78092 1.73275 -0.82973 
-1.25144 1.55310 -0.54027 
-0.80551 1.82730 -0.52745 
-1.04608 1.73538 -0.37948 
-0.98089 1.54181 -0.98733 
-1.22151 1.45000 -0.83931 
2.03132 0.29023 -0.04747 
2.03195 -0.28929 -0.04713 
2.02429 0.14883 0.23773 
2.02764 0.14845 -0.33247 
2.02473 -0.14725 0.23785 
2.02788 -0.14809 -0.33225 
1.72698 0.77042 0.73423 
1.54337 0.48000 1.20673 
1.53531 0.92652 0.93418 
1.44145 0.77768 1.17594 
1.82089 0.46903 0.75889 
1.72722 0.32102 0.99990 
1.73611 0.77244 -0.83067 
1.55768 0.48170 -1.30030 
1.54603 0.93005 -1.03140 
1.45470 0.78136 -1.27148 
1.83051 0.46959 -0.85427 
1.73936 0.32092 -1.09447 
1.25393 -1.55485 -0.53116 
0.78473 -1.73517 -0.82200 
1.04828 -1.73663 -0.37046 
1.22501 -1.45260 -0.83084 
0.80838 -1.82890 -0.51918 
0.98505 -1.54474 -0.97953 
1.25131 -1.55216 0.43401 
0.78135 -1.73128 0.72221 
1.04672 -1.73483 0.27255 
1.22081 -1.44847 0.73314 
0.80630 -1.82635 0.42008 
0.98063 -1.54019 0.88047 
1.73029 -0.76956 0.73434 
1.54717 -0.47895 1.20552 
1.82318 -0.46722 0.75886 
1.72930 -0.31887 0.99958 
1.53973 -0.92684 0.93380 
1.44656 -0.77833 1.17445 
1.73691 -0.77365 -0.82919 
1.55810 -0.48421 -1.29927 
1.83101 -0.47071 -0.85337 
1.73966 -0.32271 -1.09382 
1.54689 -0.93194 -1.02947 
1.45537 -0.78390 -1.26979 
0.00226 -2.03323 -0.34046 
0.00120 -2.03148 0.23912 
0.28693 -2.02744 -0.19841 
0.28634 -2.02658 0.09797 
-0.28289 -2.02762 -0.19918 
-0.28338 -2.02668 0.09722 
0.48685 -1.25327 -1.60351 
0.77711 -0.78366 -1.78260 
0.78651 -1.22361 -1.50036 
0.93493 -0.98347 -1.59196 
0.32577 -1.04813 -1.78558 
0.47421 -0.80800 -1.87715 
-0.47942 -1.25381 -1.60491 
-0.76968 -0.78452 -1.78491 
-0.31807 -1.04849 -1.78652 
-0.77940 -1.22449 -1.50264 
-0.46649 -0.80852 -1.87855 
-0.92782 -0.98452 -1.59470 
-0.77898 -1.73595 -0.82419 
-1.24917 -1.55610 -0.53464 
-0.80344 -1.82961 -0.52139 
-0.97904 -1.54578 -0.98232 
-1.04384 -1.73753 -0.37330 
-1.21952 -1.45391 -0.83431 
0.48132 -1.25091 1.50244 
0.77129 -0.78554 1.68808 
0.77985 -1.21915 1.40136 
0.92793 -0.98063 1.49424 
0.32101 -1.05033 1.68705 
0.46439 -0.80668 1.79013 
-0.48638 -1.24928 1.50244 
-0.77445 -0.77861 1.69062 
-0.32878 -1.04835 1.68759 
-0.78311 -1.21710 1.40115 
-0.47349 -0.80148 1.79206 
-0.93019 -0.97703 1.49499 
-0.78096 -1.73107 0.72049 
-1.24943 -1.55268 0.43102 
-0.80456 -1.82647 0.41812 
-1.04433 -1.73526 0.26995 
-0.98073 -1.53977 0.87863 
-1.21999 -1.44854 0.73061 
0.31999 -0.27872 2.11921 
0.06321 -0.29395 2.33149 
0.40555 0.13726 2.19146 
0.05492 0.11597 2.57871 
-0.18032 -0.39778 2.14867 
-0.39414 -0.14102 2.15850 
-1.55119 0.47972 1.19583 
-1.73234 0.76993 0.72425 
-1.44999 0.77920 1.16406 
-1.54213 0.92758 0.92322 
-1.73266 0.31921 0.99051 
-1.82557 0.46735 0.74951 
-1.54881 -0.48040 1.20072 
[...]
CELL_DATA 1960
SCALARS Strain double 
LOOKUP_TABLE default 
-0.08788
-0.09028
-0.08567
-0.09022
-0.08734
-0.08838
-0.08686
-0.08789
-0.08755
-0.08709
-0.08858
-0.08743
-0.08877
-0.08623
-0.08723
-0.08818
-0.08727
-0.08846
-0.08697
-0.08776
-0.08718
-0.08823
-0.08773
-0.08772
-0.08717
-0.08728
-0.08876
-0.08934
-0.08737
-0.08842
-0.10851
-0.06498
-0.06109
-0.11020
-0.05321
-0.10277
-0.10444
-0.06208
-0.06987
-0.07057
-0.08754
-0.08745
-0.08758
-0.08748
-0.08746
-0.08742
-0.08751
-0.08753
-0.08767
-0.08749
-0.08862
-0.08689
-0.08765
-0.08858
-0.08760
-0.08756
-0.08839
-0.08694
-0.08747
-0.08848
-0.03548
-0.03551
0.07053
0.06884
0.06883
0.07046
-0.03826
-0.03735
0.07068
0.07286
0.07119
0.06960
-0.02279
-0.04342
0.08658
0.04539
0.06830
0.09905
-0.02958
-0.03335
0.06399
0.06930
0.07284
0.06748
-0.03455
-0.03502
0.06937
0.06739
0.06731
0.06981
-0.03326
-0.03336
0.06893
0.06910
0.06904
0.06907
-0.03426
-0.03419
0.06937
0.07000
0.06994
0.06947
-0.03397
-0.03394
0.06999
0.06896
0.06914
0.06997
-0.03331
-0.03324
0.06988
0.06780
0.06811
0.06976
-0.03567
-0.03553
0.07056
0.06982
0.06996
0.07014
-0.02876
-0.02703
0.06416
0.06965
0.07109
0.06265
-0.03401
-0.03403
0.06942
0.06965
0.06956
0.06950
-0.03356
-0.03356
0.06864
0.06935
0.06937
0.06876
-0.03543
-0.03529
0.06863
0.06970
0.06980
0.06879
-0.03059
-0.02887
0.06881
0.06506
0.06734
0.06723
-0.03432
-0.03429
0.06971
0.06956
0.06951
0.06976
-0.03541
-0.03553
0.06974
0.06941
0.06936
0.06986
-0.03416
-0.03412
0.06920
0.06990
0.06991
0.06930
-0.03414
-0.03410
0.06985
0.06921
0.06932
0.06980
-0.03354
-0.03357
0.06917
0.06883
0.06878
0.06922
-0.03009
-0.04330
0.07478
0.07455
0.05919
0.08451
-0.02409
-0.03544
0.05195
0.07609
0.08474
0.06495
-0.03684
-0.03658
0.07052
0.06956
0.07022
0.07012
-0.13051
-0.10299
-0.09888
-0.08482
-0.21404
0.13368
-0.02959
-0.03155
0.06581
0.06861
0.06647
0.06715
-0.02935
-0.03071
0.06894
0.06521
0.06376
0.07065
-0.03395
-0.03397
0.06956
0.06943
0.06944
0.06954
-0.03467
-0.03483
0.06988
0.06980
0.06980
0.06983
-0.03415
-0.03415
0.06949
0.06952
0.06961
0.06932
-0.03499
-0.03520
0.06881
0.07042
0.07007
0.06897
-0.06643
-0.04613
0.08081
0.07758
0.03212
0.03494
-0.06925
-0.04914
0.08130
0.08014
0.03436
0.03640
-0.06207
-0.03895
0.07953
0.07640
0.02703
0.03133
-0.06921
-0.04877
0.08022
0.07969
0.03514
0.03588
-0.06505
-0.04461
0.07748
0.07858
0.03226
0.03204
-0.06672
-0.04626
0.07979
0.08061
0.03509
0.03433
-0.06477
-0.04407
0.07964
0.07917
0.03331
0.03390
-0.06589
-0.04516
0.07944
0.08058
0.03486
0.03401
-0.06553
-0.04483
0.08056
0.07902
0.03366
0.03482
-0.06500
-0.04424
0.08037
0.07869
0.03275
0.03446
-0.06728
-0.04738
0.08127
0.07893
0.03440
0.03697
-0.06523
-0.04435
0.08029
0.07895
0.03304
0.03415
-0.06713
-0.04656
0.08034
0.08044
0.03531
0.03466
-0.06314
-0.04113
0.07746
0.07985
0.03298
0.03073
-0.06536
-0.04479
0.07912
0.08011
0.03441
0.03360
-0.06655
-0.04615
0.07955
0.08040
0.03524
0.03410
-0.06516
-0.04442
0.07936
0.07930
0.03354
0.03362
-0.06686
-0.04637
0.07967
0.07993
0.03459
0.03444
-0.06432
-0.04270
0.07898
0.07902
0.03219
0.03243
-0.06582
-0.04516
0.08015
0.07941
0.03384
0.03448
-0.06513
-0.04442
0.07990
0.07909
0.03323
0.03410
-0.06653
-0.04608
0.08007
0.07996
0.03443
0.03456
-0.06574
-0.04504
0.07932
0.08036
0.03466
0.03387
-0.06572
-0.04502
0.08035
0.07931
0.03385
0.03463
-0.06511
-0.04439
0.07983
0.07909
0.03324
0.03406
-0.06551
-0.04541
0.07898
0.07805
0.03246
0.03357
-0.06700
-0.04640
0.07899
0.08010
0.03425
0.03338
-0.06776
-0.04681
0.07831
0.08112
0.03477
0.03327
-0.06456
-0.04234
0.07977
0.07732
0.03031
0.03153
-0.06706
-0.04711
0.08047
0.07811
0.03285
0.03550
-0.06436
-0.04189
0.08212
0.08893
0.04596
0.02894
-0.05353
-0.03583
0.08233
0.06826
0.02699
0.03991
-0.05348
-0.03722
0.07065
0.07624
0.03536
0.03165
-0.05876
-0.03445
0.07592
0.08014
0.03617
0.02478
0.00361
0.22989
0.17196
0.16397
0.02638
0.02573
-0.06649
-0.03890
0.08927
0.07406
0.02776
0.03897
-0.06565
-0.03882
0.09253
0.07561
0.02119
0.04196
-0.01638
0.12748
0.15370
0.02662
0.02655
-0.05391
-0.03753
0.07567
0.07124
0.03179
0.03359
-0.05647
-0.03850
0.07963
0.07038
0.02829
0.03800
-0.06559
-0.04497
0.07997
0.07987
0.03417
0.03436
-0.06550
-0.04486
0.07987
0.07990
0.03420
0.03413
-0.06567
-0.04507
0.07991
0.07999
0.03429
0.03424
-0.06553
-0.04490
0.08003
0.07971
0.03398
0.03437
-0.06545
-0.04478
0.07988
0.07975
0.03408
0.03418
-0.06542
-0.04476
0.07963
0.08000
0.03434
0.03382
-0.06554
-0.04490
0.07980
0.07986
0.03426
0.03405
-0.06551
-0.04482
0.07973
0.07987
0.03422
0.03411
-0.06585
-0.04534
0.07997
0.08005
0.03442
0.03429
-0.06557
-0.04495
0.07974
0.07999
0.03427
0.03396
-0.06689
-0.04618
0.07833
0.08072
0.03500
0.03305
-0.06474
-0.04403
0.07824
0.07967
0.03392
0.03277
-0.06524
-0.04373
0.08008
0.07785
0.03163
0.03326
-0.06659
-0.04581
0.07980
0.08029
0.03475
0.03425
-0.06591
-0.04555
0.07842
0.08034
0.03494
0.03317
-0.06535
-0.04450
0.07974
0.07915
0.03328
0.03383
-0.06700
-0.04694
0.08034
0.07924
0.03444
0.03555
-0.06429
-0.04270
0.07797
0.07983
0.03307
0.03134
-0.06556
-0.04495
0.07932
0.07972
0.03419
0.03380
-0.06677
-0.04615
0.08023
0.07978
0.03432
0.03451
0.07313
0.07325
0.01844
0.02024
0.01669
0.01529
0.07135
0.07147
0.02117
0.01842
0.01527
0.01776
0.07131
0.07134
0.02145
0.01956
0.01646
0.01829
0.07283
0.07261
0.02075
0.01880
0.01541
0.01767
0.07790
0.08197
0.02305
0.01151
0.01220
0.01553
0.07260
0.07194
0.02119
0.01901
0.01548
0.01824
0.07055
0.06854
0.02503
0.01809
0.01357
0.02400
0.07416
0.09100
0.01306
0.02365
0.03012
0.00029
0.06908
0.07078
0.03155
0.01492
0.01399
0.02633
0.12008
0.04184
0.05673
0.02573
0.09826
0.02543
0.07067
0.07017
0.01881
0.02010
0.01756
0.01527
0.08803
0.41992
0.05551
0.02620
0.04429
0.02628
0.06723
0.06739
0.02300
0.02122
0.01875
0.01849
0.06988
0.07006
0.02114
0.02035
0.01743
0.01781
0.07272
0.07243
0.01985
0.01763
0.01459
0.01744
0.07163
0.07176
0.02026
0.02112
0.01787
0.01716
0.07171
0.07183
0.02034
0.02083
0.01777
0.01715
0.07253
0.07253
0.02043
0.02013
0.01706
0.01731
0.07237
0.07227
0.02043
0.02047
0.01724
0.01719
0.07203
0.07206
0.02071
0.02037
0.01714
0.01754
0.07122
0.07093
0.02113
0.02071
0.01753
0.01797
0.07178
0.07188
0.02069
0.02054
0.01735
0.01754
0.07245
0.07243
0.01996
0.02074
0.01755
0.01658
0.07225
0.07228
0.01931
0.02113
0.01798
0.01637
0.07352
0.07379
0.02212
0.01672
0.01365
0.01931
0.07216
0.07207
0.02079
0.01998
0.01686
0.01749
0.07245
0.07211
0.02225
0.01771
0.01399
0.01992
0.07238
0.07225
0.02040
0.02014
0.01692
0.01719
0.06540
0.06627
0.02501
0.02230
0.01941
0.02085
0.07205
0.07207
0.02039
0.02058
0.01742
0.01718
0.07107
0.07107
0.01984
0.02092
0.01772
0.01674
0.07189
0.07195
0.01998
0.02086
0.01773
0.01688
0.07197
0.07211
0.01937
0.02079
0.01766
0.01602
0.07142
0.07157
0.02040
0.02096
0.01777
0.01726
0.07221
0.07141
0.02121
0.01817
0.01491
0.01854
0.07207
0.07195
0.01891
0.02039
0.01696
0.01587
0.07177
0.07323
0.02092
0.01801
0.01585
0.01603
0.06910
0.06936
0.01992
0.02241
0.01899
0.01778
0.07233
0.07238
0.02052
0.02022
0.01696
0.01730
0.07178
0.07169
0.02097
0.01941
0.01612
0.01789
0.07253
0.07277
0.01957
0.01923
0.01607
0.01621
0.07242
0.07240
0.02028
0.02027
0.01717
0.01717
0.07188
0.07192
0.02069
0.02046
0.01724
0.01751
0.07159
0.07146
0.02090
0.02038
0.01725
0.01768
0.07192
0.07199
0.02063
0.02042
0.01721
0.01749
0.07223
0.07213
0.02028
0.02054
0.01731
0.01703
0.07136
0.07161
0.01939
0.02107
0.01795
0.01611
0.07182
0.07192
0.02012
0.02066
0.01761
0.01697
0.08412
0.08082
0.02109
0.01512
0.00834
0.02212
0.10895
-0.12310
0.08131
0.02543
0.06072
0.02569
0.07516
0.07364
0.01438
0.02301
0.01772
0.01277
0.10975
0.19519
0.03760
0.02546
0.09302
0.02517
0.06675
0.06925
0.02705
0.01684
0.01629
0.02263
0.07153
0.06968
0.02299
0.01816
0.01370
0.02119
0.06738
0.06632
0.02054
0.02449
0.02047
0.01767
0.07047
0.07100
0.01869
0.02184
0.01949
0.01484
0.07358
0.07334
0.01737
0.02081
0.01773
0.01437
0.07226
0.07219
0.02059
0.02013
0.01681
0.01740
0.07233
0.07239
0.02050
0.01969
0.01667
0.01722
0.07169
0.07158
0.02020
0.02069
0.01743
0.01712
0.07221
0.06812
-0.00844
-0.00512
0.06999
-0.00608
-0.00340
0.06928
-0.01015
-0.00864
0.07164
-0.00337
-0.00534
-0.00674
-0.00887
0.07106
0.07163
-0.00491
-0.00537
0.07053
-0.00663
-0.00600
0.07185
-0.00496
-0.00587
0.07018
-0.00623
-0.00507
-0.00689
-0.00553
0.07209
0.06995
-0.00566
-0.00356
0.06996
-0.00701
-0.00548
0.07099
0.07168
-0.00432
-0.00536
-0.00696
-0.00789
-0.00545
-0.00671
0.07043
0.07153
-0.00479
-0.00593
0.07105
0.07036
-0.00661
-0.00608
0.07084
-0.00538
-0.00513
-0.00690
-0.00708
-0.00630
-0.00538
0.07122
0.07047
-0.00658
-0.00582
0.07119
-0.00539
-0.00534
0.07161
-0.00524
-0.00602
0.07046
-0.00604
-0.00525
-0.00659
-0.00583
0.06981
0.06996
-0.00728
-0.00721
0.07140
-0.00559
-0.00675
0.07123
-0.00531
-0.00588
0.06902
-0.00851
-0.00719
-0.00722
-0.00492
0.06924
0.10822
0.00380
-0.01983
0.05014
-0.01111
0.00290
0.06066
-0.00284
-0.00668
0.11531
-0.00025
-0.03118
-0.04683
-0.05014
0.09546
0.06877
-0.01296
0.00505
0.10163
0.06821
-0.01924
0.00314
-0.03038
-0.03648
0.05531
-0.01055
-0.00241
-0.01110
0.00009
0.07111
0.07115
-0.00567
-0.00561
0.07112
-0.00570
-0.00577
0.07120
-0.00562
-0.00566
0.07101
-0.00584
-0.00560
-0.00578
-0.00569
0.07098
0.07115
-0.00566
-0.00596
0.07114
0.07101
-0.00570
-0.00575
-0.00564
-0.00575
0.07121
-0.00553
-0.00565
-0.00565
-0.00591
0.06992
0.07170
-0.00486
-0.00628
0.07071
-0.00642
-0.00698
0.06953
-0.00758
-0.00603
0.07151
-0.00506
-0.00579
-0.00526
-0.00684
0.07145
0.07023
-0.00676
-0.00580
0.07018
-0.00569
-0.00461
0.07095
-0.00678
-0.00745
0.07117
-0.00567
-0.00644
-0.00521
-0.00555
0.05501
0.05720
0.07824
0.07585
0.05731
0.05615
0.07699
0.07815
-0.01570
-0.01690
0.04836
-0.01631
-0.01769
0.05043
-0.01714
0.05069
-0.01760
0.04954
0.05732
0.05784
0.07876
0.07917
0.05686
0.05949
0.07891
0.07677
-0.01741
-0.01898
0.04988
-0.01888
-0.02200
0.04901
-0.01825
0.05067
-0.01919
0.05481
0.04201
0.05423
0.07948
0.07086
0.06574
0.06830
0.07584
0.07562
-0.01861
-0.01080
0.04478
0.01260
-0.00651
0.03310
-0.01871
0.05935
-0.03641
0.00773
0.04673
0.05308
0.08349
0.07287
0.06031
0.05463
0.07141
0.07117
-0.00129
-0.02222
0.02817
-0.01381
-0.01510
0.04709
-0.02118
0.04213
-0.01280
0.04881
0.05392
0.05585
0.07599
0.07479
0.05681
0.05459
0.07535
0.07807
-0.01472
-0.01563
0.04737
-0.01604
-0.01688
0.04978
-0.01646
0.04986
-0.01792
0.04822
0.05563
0.05599
0.07688
0.07664
0.05546
0.05604
0.07721
0.07661
-0.01371
-0.01506
0.04905
-0.01523
0.04856
-0.01393
-0.01525
0.04942
-0.01545
0.04935
0.05688
0.05621
0.07700
0.07788
0.05625
0.05664
0.07753
0.07725
-0.01469
-0.01616
0.05014
-0.01476
-0.01623
0.04962
-0.01603
0.04950
-0.01609
0.05000
0.05586
0.05689
0.07787
0.07657
0.05663
0.05586
0.07696
0.07755
-0.01451
-0.01594
0.04934
-0.01440
-0.01582
0.05021
-0.01588
0.05000
-0.01577
0.04899
0.05471
0.05662
0.07775
0.07595
0.05643
0.05487
0.07552
0.07733
-0.01389
-0.01539
0.04777
-0.01519
0.04995
-0.01381
-0.01525
0.04990
-0.01518
0.04849
0.05711
0.05690
0.07812
0.07773
0.05742
0.05643
0.07735
0.07787
-0.01699
-0.01854
0.05066
-0.01545
-0.01692
0.04999
-0.01811
0.05136
-0.01674
0.04967
0.05556
0.05129
0.07344
0.07779
0.04964
0.05958
0.07869
0.06827
-0.00725
-0.01062
0.04749
-0.00677
0.04486
-0.01083
-0.01293
0.04446
-0.01190
0.05261
0.05650
0.05609
0.07692
0.07738
0.05633
0.05631
0.07733
0.07732
-0.01462
-0.01600
0.04994
-0.01599
0.04959
-0.01448
-0.01581
0.04948
-0.01590
0.04960
0.05596
0.05564
0.07651
0.07693
0.05537
0.05623
0.07724
0.07648
-0.01410
-0.01548
0.04933
-0.01409
-0.01551
0.04907
-0.01553
0.04856
-0.01547
0.04957
0.05668
0.05598
0.07673
0.07759
0.05484
0.05658
0.07704
0.07553
-0.01544
-0.01695
0.05000
-0.01620
-0.01793
0.04941
-0.01645
0.04831
-0.01763
0.04940
0.05325
0.05425
0.07634
0.07577
0.05624
0.05364
0.07095
0.07471
-0.01084
-0.01337
0.04554
-0.01099
0.05035
-0.01147
-0.01387
0.04692
-0.01187
0.04881
0.05621
0.05660
0.07749
0.07708
0.05647
0.05638
0.07735
0.07745
-0.01476
-0.01616
0.04955
-0.01613
0.04980
-0.01489
-0.01633
0.04999
-0.01622
0.04966
0.05643
0.05670
0.07751
0.07729
0.05646
0.05586
0.07681
0.07754
-0.01598
-0.01722
0.04981
-0.01749
0.04964
-0.01592
-0.01720
0.05015
-0.01738
0.04910
0.05677
0.05605
0.07685
0.07773
0.05607
0.05661
0.07754
0.07708
-0.01462
-0.01605
0.05008
-0.01597
0.04930
-0.01467
-0.01612
0.04947
-0.01601
0.04995
0.05605
0.05670
0.07770
0.07684
0.05653
0.05610
0.07714
0.07741
-0.01466
-0.01610
0.04948
-0.01460
-0.01604
0.04998
-0.01602
0.04990
-0.01595
0.04934
0.05543
0.05614
0.07711
0.07650
0.05570
0.05577
0.07677
0.07677
-0.01400
-0.01543
0.04869
-0.01414
-0.01550
0.04952
-0.01543
0.04895
-0.01561
0.04915
0.05170
0.04995
0.07416
0.08080
0.05081
0.07604
0.07371
0.05712
-0.01824
-0.01473
0.04966
-0.01338
0.04823
-0.00095
-0.01925
0.03229
-0.04045
0.02601
0.04724
0.04644
0.07729
0.07375
0.05718
0.05980
0.07604
0.07045
0.01138
-0.01233
0.02517
-0.01472
-0.01124
0.04430
-0.02075
0.01461
-0.01574
0.05375
0.05557
0.05781
0.07821
0.07643
0.05693
0.05756
0.07766
0.07721
-0.01644
-0.01759
0.04878
-0.01768
0.05042
-0.01804
-0.02001
0.05021
-0.01875
0.05190
0.19813
-0.05443
-0.05644
-0.24065
-0.08463
-0.14826
-0.18040
-0.10331
-0.27209
0.13272
-0.17161
-0.03667
0.05482
0.05434
0.07308
0.07227
0.05316
0.05451
0.07695
0.07496
-0.01226
-0.01177
0.05003
-0.01503
0.04596
-0.01142
-0.01133
0.04853
-0.01406
0.04665
0.05089
0.05860
0.07715
0.06980
0.05537
0.05213
0.07422
0.07765
-0.00975
-0.00971
0.04643
-0.01262
0.04702
-0.01252
-0.01347
0.05224
-0.01446
0.04527
0.05622
0.05633
0.07729
0.07717
0.05636
0.05624
0.07716
0.07728
-0.01442
-0.01581
0.04952
-0.01584
0.04969
-0.01444
-0.01583
0.04962
-0.01586
0.04956
0.05661
0.05653
0.07750
0.07753
0.05680
0.05653
0.07744
0.07766
-0.01533
-0.01654
0.04993
-0.01691
0.05018
-0.01520
-0.01644
0.04985
-0.01674
0.04981
0.05640
0.05611
0.07719
0.07741
0.05631
0.05623
0.07705
0.07708
-0.01477
-0.01612
0.04967
-0.01618
0.04979
-0.01457
-0.01596
0.04930
-0.01593
0.04965
0.05723
0.05552
0.07616
0.07781
0.05603
0.05680
0.07800
0.07696
-0.01636
-0.01738
0.05111
-0.01798
0.04927
-0.01507
-0.01630
0.04902
-0.01659
0.04995
-0.01780
-0.02006
-0.01869
-0.01658
0.08679
0.08413
-0.02286
-0.01354
0.08821
-0.01255
-0.02176
0.08722
-0.02010
-0.01661
0.08282
-0.01827
-0.01628
-0.01860
-0.01670
0.08524
0.08632
-0.01642
-0.01742
0.08515
-0.01753
-0.01721
0.08623
-0.01702
-0.01650
0.08461
-0.01892
-0.01667
-0.01935
-0.01359
0.08619
0.08348
-0.01679
-0.01713
0.08512
-0.01970
-0.01497
-0.01816
-0.01691
0.08655
0.08582
-0.01890
-0.01553
-0.01783
-0.01734
0.08539
0.08593
-0.01670
-0.01818
-0.01677
-0.01756
0.08491
0.08534
-0.01897
-0.01592
0.08534
-0.01677
-0.01824
-0.01668
-0.01728
0.08571
0.08500
-0.01823
-0.01669
0.08553
-0.01739
-0.01736
0.08606
-0.01728
-0.01669
0.08501
-0.01727
-0.01874
-0.01745
-0.01829
0.08517
0.08345
-0.01860
-0.01843
0.08612
-0.02042
-0.01611
0.08836
-0.01529
-0.01990
0.08410
-0.02210
-0.00681
0.02277
-0.09355
0.08612
0.03798
-0.01347
-0.01085
0.07781
-0.01226
-0.01628
0.08258
0.03610
-0.10182
0.00586
0.00204
-0.05384
-0.01634
-0.01032
0.05114
0.07989
0.01231
-0.07369
-0.01998
-0.00979
0.06601
0.08265
-0.01116
-0.01437
0.07867
-0.01718
-0.01715
-0.01725
-0.01702
0.08578
0.08562
-0.01709
-0.01728
0.08568
-0.01735
-0.01713
0.08584
-0.01716
-0.01703
0.08547
-0.01707
-0.01706
-0.01696
-0.01756
0.08542
0.08587
-0.01719
-0.01710
-0.01712
-0.01726
0.08555
0.08565
-0.01750
-0.01713
0.08581
-0.01787
-0.01632
-0.01923
-0.01716
0.08370
0.08625
-0.01641
-0.01829
0.08571
-0.01617
-0.01809
0.08400
-0.01810
-0.01734
0.08600
-0.01678
-0.01857
-0.01695
-0.01735
0.08542
0.08525
-0.01907
-0.01509
0.08418
-0.01619
-0.01920
0.08644
-0.01706
-0.01787
0.08532
0.04947
0.04715
0.04809
0.04838
0.04895
0.04629
0.05592
0.04585
0.04462
0.09689
-0.02656
0.00658
0.04736
0.04476
0.04916
0.04816
0.04825
0.04879
0.04875
0.04841
0.04818
0.04749
0.04894
0.04865
0.05076
0.04941
0.04359
0.04835
0.04859
0.04826
0.04717
0.04821
0.04862
0.04835
0.04793
0.04878
0.04849
0.04800
0.04576
0.04773
0.04903
0.04744
0.04867
0.04827
0.04830
0.04798
0.04864
0.04833
0.10019
-0.01082
-0.03063
0.05173
0.04394
0.04748
0.04450
0.04775
0.05049
0.04848
0.04860
0.04790
-0.22835
0.07692
-0.00686
-0.06859
0.07204
-0.01258
0.06817
0.10980
-0.11454
0.07300
0.08262
-0.03412
-0.01852
-0.07324
-0.03363
-0.08442
-0.17490
0.53014
-0.17635
-0.16055
-0.09235
-0.15844
0.03439
-0.03033
-0.04811
-0.14572
-0.11034
-0.10154
0.10727
-0.04067
0.11436
0.11062
-0.10727
0.03182
-0.09047
-0.04136
-0.03842
0.01506
-0.09977
-0.04849
0.08152
0.33463
-0.09712
0.08931
-0.10353
0.37971
0.10000
