# vtk DataFile Version 3.0
Point representing Sub_cellular elem model
ASCII

DATASET UNSTRUCTURED_GRID
POINTS 650 float
-0.00114 1.74513 1.04743 
0.00136 1.74107 -1.10074 
1.74351 1.07583 -0.02347 
1.74341 -1.07719 -0.02282 
0.00136 -1.74313 -1.09958 
0.00097 -1.74282 1.04954 
1.07088 0.00305 1.72340 
-1.08129 0.00094 1.71941 
1.07780 -0.00129 -1.76405 
-1.07507 -0.00132 -1.76441 
-1.74262 1.07684 -0.02547 
-1.74175 -1.07805 -0.02420 
0.00084 2.05464 -0.02643 
1.02788 1.66252 0.60798 
0.63286 1.03178 1.63108 
-0.63879 1.02794 1.63401 
-1.02802 1.66315 0.60729 
1.02837 1.66040 -0.65870 
0.63586 1.02507 -1.68371 
-0.63305 1.02510 -1.68401 
-1.02599 1.66081 -0.65948 
2.05414 -0.00073 -0.02242 
1.66089 0.63502 1.00271 
1.66242 0.63310 -1.04915 
1.02822 -1.66226 -0.65768 
1.02843 -1.66176 0.60958 
1.66119 -0.63292 1.00318 
1.66234 -0.63554 -1.04892 
0.00134 -2.05500 -0.02433 
0.63577 -1.02761 -1.68333 
-0.63302 -1.02764 -1.68343 
-1.02548 -1.66241 -0.65788 
0.63517 -1.02472 1.63428 
-0.63499 -1.02506 1.63608 
-1.02631 -1.66264 0.60938 
0.08150 -0.12463 2.22600 
-1.66411 0.63549 0.99972 
-1.66318 -0.63560 1.00026 
0.00138 -0.00132 -2.07528 
-1.65999 0.63329 -1.05027 
-1.65979 -0.63566 -1.04969 
-2.05365 -0.00077 -0.02483 
0.00011 1.97466 0.54385 
0.52383 1.77476 0.86693 
0.32181 1.45246 1.38813 
-0.32702 1.45179 1.38848 
-0.52506 1.77486 0.86674 
0.00121 1.97213 -0.59675 
0.52518 1.77128 -0.91944 
0.32507 1.44700 -1.44212 
-0.32226 1.44705 -1.44229 
-0.52256 1.77144 -0.91977 
1.45004 1.41889 0.29893 
1.45023 1.41808 -0.34756 
1.97319 0.57064 -0.02279 
1.77299 0.89490 0.50003 
1.77354 0.89396 -0.54661 
1.97314 -0.57207 -0.02247 
1.45009 -1.41977 -0.34670 
1.45009 -1.41936 0.30001 
1.77307 -0.89497 0.50062 
1.77343 -0.89605 -0.54618 
0.52510 -1.77325 -0.91831 
0.00137 -1.97354 -0.59511 
0.32499 -1.44941 -1.44139 
-0.32225 -1.44941 -1.44142 
-0.52235 -1.77328 -0.91834 
0.52522 -1.77295 0.86882 
0.00123 -1.97367 0.54616 
0.32499 -1.44888 1.38967 
-0.32396 -1.44924 1.39016 
-0.52310 -1.77337 0.86898 
0.89806 0.52879 1.74491 
1.41760 0.32495 1.42448 
1.41778 -0.32058 1.42492 
0.89727 -0.52206 1.74716 
0.55595 0.00536 1.97030 
-0.90283 0.52609 1.74756 
-0.90236 -0.52559 1.74558 
-0.57057 0.00284 1.96713 
-1.42360 0.32427 1.42138 
-1.42330 -0.32393 1.42103 
0.89644 0.52220 -1.79426 
1.42003 0.32226 -1.47064 
1.41999 -0.32482 -1.47055 
0.89639 -0.52478 -1.79411 
0.57280 -0.00130 -1.99409 
-0.89366 0.52219 -1.79462 
-0.89364 -0.52482 -1.79433 
-0.57004 -0.00133 -1.99426 
-1.41736 0.32228 -1.47130 
-1.41730 -0.32486 -1.47107 
-1.44957 1.41999 0.29737 
-1.44841 1.41882 -0.34893 
-1.77381 0.89601 0.49753 
-1.77169 0.89451 -0.54827 
-1.97267 0.57132 -0.02517 
-1.44761 -1.42022 -0.34738 
-1.44826 -1.42045 0.29906 
-1.77280 -0.89660 0.49857 
-1.77121 -0.89643 -0.54730 
-1.97218 -0.57277 -0.02448 
0.55779 1.95338 0.27896 
-0.55680 1.95373 0.27861 
0.55814 1.95207 -0.33106 
-0.55603 1.95236 -0.33146 
0.90058 1.39776 1.17774 
1.05289 1.76317 -0.02527 
1.39591 1.20712 0.87496 
-0.00446 1.05851 1.73209 
1.20603 0.90301 1.36786 
0.30582 0.56000 1.93398 
-0.90343 1.39715 1.17799 
-0.30622 0.55511 1.93970 
-1.21009 0.90223 1.36747 
-1.05137 1.76386 -0.02615 
-1.39749 1.20790 0.87348 
0.90213 1.39378 -1.22951 
1.39670 1.20495 -0.92378 
0.00141 1.04954 -1.78551 
1.20758 0.89912 -1.41770 
0.30697 0.55511 -1.97393 
-0.89940 1.39393 -1.23006 
-0.30418 0.55510 -1.97404 
-1.20487 0.89922 -1.41836 
-1.39423 1.20528 -0.92481 
1.95211 0.30547 0.53379 
1.95291 0.30443 -0.57906 
1.95213 -0.30542 0.53399 
1.95287 -0.30663 -0.57892 
1.76231 0.00113 1.02799 
1.76400 -0.00124 -1.07336 
1.05289 -1.76405 -0.02387 
1.39655 -1.20722 -0.92324 
0.55818 -1.95322 -0.32946 
0.90199 -1.39613 -1.22887 
1.39646 -1.20557 0.87603 
0.55822 -1.95325 0.28089 
0.90228 -1.39445 1.17950 
1.20692 -0.89868 1.36916 
1.20748 -0.90163 -1.41739 
-0.55546 -1.95331 -0.32949 
-0.55566 -1.95349 0.28090 
0.00137 -1.05210 -1.78505 
0.30694 -0.55772 -1.97374 
-0.89922 -1.39617 -1.22900 
-0.30419 -0.55773 -1.97380 
-1.20474 -0.90169 -1.41771 
-1.05032 -1.76447 -0.02414 
-1.39386 -1.20738 -0.92370 
-0.00073 -1.05503 1.73294 
0.30057 -0.54644 1.94320 
-0.90093 -1.39573 1.17989 
-0.30273 -0.54214 1.94479 
-1.20819 -0.90187 1.36797 
-1.39579 -1.20768 0.87484 
-1.76597 -0.00006 1.02425 
-1.95357 0.30570 0.53068 
-1.95320 -0.30646 0.53104 
-1.76158 -0.00123 -1.07439 
-1.95117 0.30467 -0.58077 
-1.95100 -0.30677 -0.58044 
-0.00045 1.87650 0.80684 
0.26053 1.77688 0.96779 
0.15979 1.61589 1.22777 
-0.16347 1.61580 1.22775 
-0.26232 1.77691 0.96766 
0.00130 1.87307 -0.85989 
0.26247 1.77301 -1.02080 
0.16275 1.61129 -1.28135 
-0.15998 1.61132 -1.28144 
-0.25979 1.77308 -1.02096 
1.61411 1.25721 0.13734 
1.61423 1.25686 -0.18505 
1.87487 0.83437 -0.02310 
1.77515 0.99604 0.23752 
1.77538 0.99556 -0.28425 
1.87480 -0.83577 -0.02263 
1.61411 -1.25840 -0.18428 
1.61405 -1.25818 0.13820 
1.77512 -0.99687 0.23815 
1.77527 -0.99733 -0.28371 
0.26244 -1.77503 -1.01965 
0.00136 -1.87485 -0.85850 
0.16270 -1.61356 -1.28041 
-0.15997 -1.61356 -1.28041 
-0.25971 -1.77503 -1.01965 
0.26232 -1.77473 0.96980 
0.00112 -1.87483 0.80911 
0.16238 -1.61300 1.22960 
-0.16080 -1.61318 1.22974 
-0.26028 -1.77496 0.96991 
0.99944 0.26330 1.74992 
1.25619 0.16239 1.58958 
1.25634 -0.15705 1.58980 
0.99958 -0.25701 1.75049 
0.82693 0.00369 1.85978 
-1.00581 0.26196 1.74993 
-1.00858 -0.26018 1.74690 
-0.83907 0.00195 1.85652 
-1.26362 0.16141 1.58653 
-1.26435 -0.16005 1.58550 
0.99781 0.25968 -1.79595 
1.25882 0.16000 -1.63464 
1.25880 -0.16258 -1.63459 
0.99778 -0.26226 -1.79588 
0.83647 -0.00130 -1.89559 
-0.99506 0.25966 -1.79632 
-0.99504 -0.26230 -1.79618 
-0.83372 -0.00133 -1.89585 
-1.25611 0.15999 -1.63513 
-1.25609 -0.16261 -1.63503 
-1.61344 1.25832 0.13549 
-1.61283 1.25775 -0.18674 
-1.77502 0.99716 0.23528 
-1.77397 0.99635 -0.28613 
-1.87419 0.83528 -0.02532 
-1.61196 -1.25906 -0.18531 
-1.61235 -1.25918 0.13697 
-1.77406 -0.99806 0.23647 
-1.77330 -0.99793 -0.28499 
-1.87349 -0.83662 -0.02433 
0.00054 2.03484 0.26323 
0.00106 2.03349 -0.31610 
0.28586 2.02909 0.12184 
-0.28447 2.02926 0.12166 
0.28607 2.02841 -0.17442 
-0.28415 2.02857 -0.17461 
0.78237 1.73640 0.74584 
1.25276 1.55556 0.45745 
0.80692 1.83015 0.44367 
0.98240 1.54568 0.90381 
1.04742 1.73771 0.29604 
1.22297 1.45318 0.75652 
0.48173 1.25664 1.52339 
0.77471 0.78957 1.70382 
0.78185 1.22554 1.42234 
0.32101 1.05456 1.70480 
0.93100 0.98629 1.51404 
0.46861 0.81196 1.80109 
-0.48789 1.25459 1.52478 
-0.77916 0.78460 1.70814 
-0.32892 1.05144 1.70704 
-0.78636 1.22359 1.42367 
-0.47446 0.80619 1.80582 
-0.93545 0.98367 1.51592 
-0.78300 1.73670 0.74549 
-1.25253 1.55649 0.45631 
-0.80644 1.83066 0.44315 
-0.98376 1.54590 0.90343 
-1.04660 1.73846 0.29521 
-1.22378 1.45388 0.75555 
0.78319 1.73353 -0.79758 
1.25305 1.55414 -0.50712 
0.80734 1.82834 -0.49515 
1.04763 1.73660 -0.34662 
0.98331 1.54265 -0.95490 
1.22355 1.45093 -0.80639 
0.48444 1.24971 -1.57777 
0.77462 0.78003 -1.75662 
0.78417 1.22036 -1.47490 
0.32327 1.04424 -1.75944 
0.93254 0.98015 -1.56633 
0.47166 0.80409 -1.85093 
-0.48163 1.24975 -1.57801 
-0.77183 0.78004 -1.75696 
-0.32045 1.04426 -1.75959 
-0.78138 1.22044 -1.47531 
-0.46886 0.80410 -1.85113 
-0.92976 0.98021 -1.56679 
-0.78067 1.73380 -0.79812 
-1.25090 1.55471 -0.50818 
-0.80508 1.82872 -0.49574 
-1.04560 1.73716 -0.34747 
-0.98072 1.54291 -0.95557 
-1.22110 1.45131 -0.80732 
2.03375 0.28944 -0.02256 
2.03372 -0.29089 -0.02240 
2.02817 0.14796 0.26227 
2.02856 0.14743 -0.30725 
2.02816 -0.14876 0.26236 
2.02855 -0.14934 -0.30718 
1.73468 0.77339 0.75780 
1.55402 0.48403 1.22717 
1.54404 0.93181 0.95686 
1.45172 0.78392 1.19658 
1.82863 0.47051 0.78241 
1.73633 0.32267 1.02243 
1.73566 0.77197 -0.80428 
1.55610 0.48162 -1.27359 
1.54518 0.92980 -1.00448 
1.45333 0.78130 -1.24441 
1.82982 0.46900 -0.82813 
1.73803 0.32055 -1.06816 
1.25289 -1.55593 -0.50618 
0.78307 -1.73545 -0.79649 
1.04752 -1.73804 -0.34539 
1.22339 -1.45304 -0.80563 
0.80726 -1.82988 -0.49384 
0.98316 -1.54481 -0.95408 
1.25300 -1.55544 0.45879 
0.78333 -1.73506 0.74759 
1.04762 -1.73787 0.29757 
1.22355 -1.45201 0.75788 
0.80740 -1.82975 0.44543 
0.98346 -1.54378 0.90544 
1.73488 -0.77247 0.75834 
1.55433 -0.48072 1.22762 
1.82875 -0.46946 0.78274 
1.73647 -0.32045 1.02269 
1.54449 -0.92994 0.95761 
1.45229 -0.78077 1.19733 
1.73556 -0.77428 -0.80396 
1.55604 -0.48414 -1.27343 
1.82976 -0.47136 -0.82794 
1.73799 -0.32302 -1.06805 
1.54506 -0.93218 -1.00411 
1.45324 -0.78379 -1.24414 
0.00136 -2.03442 -0.31421 
0.00129 -2.03455 0.26549 
0.28631 -2.02915 -0.17254 
0.28630 -2.02920 0.12390 
-0.28361 -2.02920 -0.17254 
-0.28367 -2.02929 0.12391 
0.48435 -1.25220 -1.57723 
0.77455 -0.78260 -1.75637 
0.78406 -1.22284 -1.47440 
0.93244 -0.98269 -1.56598 
0.32320 -1.04680 -1.75903 
0.47161 -0.80668 -1.85065 
-0.48160 -1.25222 -1.57729 
-0.77180 -0.78263 -1.75653 
-0.32046 -1.04681 -1.75907 
-0.78130 -1.22286 -1.47451 
-0.46886 -0.80670 -1.85074 
-0.92968 -0.98272 -1.56616 
-0.78031 -1.73552 -0.79658 
-1.25023 -1.55620 -0.50658 
-0.80452 -1.83000 -0.49394 
-0.98039 -1.54488 -0.95425 
-1.04484 -1.73830 -0.34563 
-1.22066 -1.45319 -0.80596 
0.48569 -1.25234 1.52468 
0.77514 -0.78214 1.70699 
0.78414 -1.22055 1.42451 
0.93235 -0.98061 1.51623 
0.32635 -1.05037 1.70579 
0.46946 -0.80207 1.80642 
-0.48514 -1.25267 1.52589 
-0.77678 -0.78415 1.70758 
-0.32694 -1.04981 1.70733 
-0.78330 -1.22167 1.42553 
-0.46996 -0.80070 1.80868 
-0.93279 -0.98288 1.51657 
-0.78117 -1.73571 0.74765 
-1.25101 -1.55649 0.45820 
-0.80499 -1.83024 0.44538 
-1.04524 -1.73850 0.29730 
-0.98168 -1.54491 0.90544 
-1.22197 -1.45347 0.75733 
0.33240 -0.11035 2.10436 
-0.14464 -0.10592 2.20243 
0.32499 0.12245 2.11220 
0.01555 0.36308 2.10659 
0.22827 -0.33718 2.08661 
-0.21713 -0.33563 2.08171 
-1.55862 0.48392 1.22405 
-1.73662 0.77429 0.75504 
-1.45545 0.78409 1.19452 
-1.54646 0.93257 0.95467 
-1.74003 0.32246 1.01888 
-1.83106 0.47090 0.77918 
-1.55789 -0.48386 1.22421 
[...]
CELL_DATA 1942
SCALARS Strain double 
LOOKUP_TABLE default 
-0.08990
-0.08582
-0.09000
-0.08719
-0.08720
-0.08814
-0.08718
-0.08769
-0.08766
-0.08720
-0.08773
-0.08720
-0.08737
-0.08784
-0.08793
-0.08747
-0.08697
-0.08824
-0.08737
-0.08800
-0.08733
-0.08791
-0.08763
-0.08763
-0.08736
-0.08667
-0.08936
-0.08878
-0.08805
-0.08699
-0.09965
-0.07492
-0.07348
-0.10023
-0.07211
-0.09224
-0.09547
-0.07590
-0.08081
-0.07657
-0.08762
-0.08755
-0.08753
-0.08761
-0.08749
-0.08757
-0.08760
-0.08759
-0.08767
-0.08759
-0.08756
-0.08723
-0.08842
-0.08830
-0.08678
-0.08735
-0.08757
-0.08840
-0.08820
-0.08688
-0.03605
-0.03572
0.07002
0.07058
0.07040
0.06996
-0.03352
-0.03393
0.07030
0.06673
0.06730
0.07041
-0.03207
-0.03730
0.06714
0.06657
0.07406
0.07172
-0.02599
-0.03539
0.05985
0.07222
0.07939
0.07024
-0.03467
-0.03445
0.07120
0.06762
0.06765
0.07118
-0.03350
-0.03348
0.06970
0.06849
0.06878
0.06959
-0.03425
-0.03424
0.06934
0.06973
0.06974
0.06941
-0.03414
-0.03413
0.06965
0.06922
0.06929
0.06962
-0.03358
-0.03359
0.06970
0.06845
0.06872
0.06971
-0.03425
-0.03426
0.06982
0.06931
0.06908
0.06979
-0.03450
-0.03432
0.06986
0.06817
0.06930
0.06883
-0.03427
-0.03420
0.06952
0.06971
0.06965
0.06949
-0.03355
-0.03362
0.06883
0.06942
0.06947
0.06904
-0.03505
-0.03492
0.06815
0.07100
0.07080
0.06800
-0.03288
-0.03230
0.06756
0.06908
0.07025
0.06651
-0.03424
-0.03417
0.06973
0.06944
0.06944
0.06972
-0.03515
-0.03540
0.06988
0.06987
0.06978
0.06997
-0.03418
-0.03418
0.06941
0.06967
0.06965
0.06945
-0.03416
-0.03416
0.06957
0.06938
0.06942
0.06954
-0.03384
-0.03384
0.06959
0.06901
0.06880
0.06961
-0.02541
-0.03934
0.07347
0.07170
0.05588
0.08434
-0.02408
-0.04203
0.05293
0.07574
0.08785
0.07455
-0.03458
-0.03426
0.07053
0.06812
0.06813
0.07031
-0.07304
-0.24261
0.21211
0.25407
-0.02550
0.19173
-0.03531
-0.03553
0.06847
0.07132
0.07132
0.06863
-0.03624
-0.03607
0.06889
0.07134
0.07161
0.06873
-0.03406
-0.03408
0.06945
0.06940
0.06942
0.06945
-0.03447
-0.03458
0.06953
0.06980
0.06978
0.06944
-0.03433
-0.03444
0.06944
0.06969
0.06971
0.06937
-0.03298
-0.03300
0.06858
0.06857
0.06880
0.06882
-0.06802
-0.04717
0.07981
0.08125
0.03547
0.03444
-0.06385
-0.04365
0.07951
0.07660
0.03128
0.03366
-0.06876
-0.04804
0.07689
0.08351
0.03745
0.03230
-0.06398
-0.04151
0.08161
0.07561
0.02909
0.03350
-0.06555
-0.04527
0.08154
0.07638
0.03147
0.03633
-0.06652
-0.04621
0.08026
0.08016
0.03467
0.03481
-0.06511
-0.04438
0.08002
0.07919
0.03324
0.03416
-0.06574
-0.04508
0.07946
0.08018
0.03451
0.03397
-0.06567
-0.04499
0.08015
0.07940
0.03388
0.03443
-0.06514
-0.04443
0.07998
0.07918
0.03324
0.03420
-0.06582
-0.04507
0.07866
0.08068
0.03500
0.03279
-0.06507
-0.04433
0.07889
0.07989
0.03420
0.03347
-0.06554
-0.04500
0.07967
0.07978
0.03396
0.03407
-0.06598
-0.04535
0.08033
0.07950
0.03357
0.03414
-0.06591
-0.04518
0.07990
0.07994
0.03442
0.03420
-0.06561
-0.04504
0.07901
0.08029
0.03469
0.03373
-0.06494
-0.04431
0.07919
0.07958
0.03382
0.03366
-0.06654
-0.04598
0.07916
0.08098
0.03522
0.03363
-0.06519
-0.04418
0.07848
0.08064
0.03432
0.03229
-0.06594
-0.04517
0.08024
0.07966
0.03406
0.03455
-0.06528
-0.04454
0.07989
0.07943
0.03356
0.03411
-0.06617
-0.04574
0.08002
0.08001
0.03447
0.03447
-0.06567
-0.04501
0.07960
0.08002
0.03438
0.03403
-0.06566
-0.04499
0.07999
0.07959
0.03402
0.03429
-0.06536
-0.04468
0.07989
0.07944
0.03359
0.03415
-0.06496
-0.04493
0.08016
0.07698
0.03194
0.03493
-0.06735
-0.04648
0.08001
0.08033
0.03462
0.03440
-0.06683
-0.04536
0.07661
0.08306
0.03595
0.03124
-0.06547
-0.04327
0.08245
0.07637
0.02997
0.03482
-0.06526
-0.04502
0.08052
0.07705
0.03206
0.03525
-0.05634
-0.03256
0.07239
0.07450
0.02810
0.02136
-0.06248
-0.04438
0.07482
0.07711
0.03560
0.03404
-0.06102
-0.04225
0.07739
0.07490
0.03268
0.03525
-0.05668
-0.03678
0.07560
0.07572
0.03350
0.02824
-0.02837
-0.05313
0.13809
0.14351
0.02655
0.02664
-0.05874
-0.03960
0.07625
0.07980
0.03582
0.03331
-0.05086
-0.03738
0.06580
0.07902
0.03404
0.02872
-0.03588
0.11460
0.13800
0.02704
0.02711
-0.06451
-0.04548
0.07840
0.08082
0.03672
0.03390
-0.06581
-0.04679
0.07692
0.08284
0.03826
0.03292
-0.06568
-0.04505
0.07994
0.07976
0.03407
0.03426
-0.06560
-0.04498
0.07992
0.07973
0.03408
0.03423
-0.06558
-0.04495
0.07973
0.07990
0.03422
0.03408
-0.06566
-0.04500
0.07991
0.07977
0.03411
0.03423
-0.06552
-0.04488
0.07975
0.07975
0.03405
0.03408
-0.06560
-0.04495
0.07965
0.07981
0.03416
0.03393
-0.06564
-0.04499
0.07975
0.07975
0.03412
0.03405
-0.06561
-0.04493
0.07969
0.07976
0.03409
0.03405
-0.06578
-0.04521
0.07979
0.07987
0.03422
0.03409
-0.06567
-0.04507
0.07971
0.07985
0.03417
0.03400
-0.06568
-0.04513
0.07835
0.08102
0.03515
0.03263
-0.06516
-0.04445
0.07861
0.08022
0.03437
0.03325
-0.06679
-0.04633
0.08117
0.07913
0.03354
0.03558
-0.06629
-0.04553
0.08035
0.07962
0.03421
0.03473
-0.06462
-0.04385
0.07905
0.07924
0.03315
0.03341
-0.06535
-0.04468
0.07886
0.08010
0.03429
0.03348
-0.06562
-0.04499
0.07855
0.08067
0.03472
0.03268
-0.06686
-0.04658
0.08099
0.07919
0.03375
0.03554
-0.06617
-0.04539
0.08021
0.07959
0.03413
0.03461
-0.06471
-0.04391
0.07907
0.07925
0.03316
0.03344
0.07256
0.07263
0.02153
0.01806
0.01531
0.01802
0.07326
0.07347
0.02071
0.01822
0.01540
0.01743
0.07266
0.07240
0.02108
0.01923
0.01570
0.01798
0.07235
0.07225
0.02125
0.01925
0.01574
0.01816
0.06870
0.06854
0.02073
0.02113
0.01772
0.01727
0.07027
0.07066
0.02127
0.02063
0.01768
0.01805
0.07317
0.07298
0.01874
0.01970
0.01669
0.01502
0.08446
0.08067
0.01975
0.01444
0.01125
0.01699
0.07042
0.07006
0.01604
0.02271
0.01932
0.01418
0.08928
-0.08822
0.05218
0.02646
0.05739
0.02630
0.07165
0.07046
0.01784
0.02354
0.01912
0.01605
0.09747
0.08355
0.05416
0.02648
0.05737
0.02639
0.07120
0.07101
0.01975
0.02278
0.01933
0.01623
0.07037
0.07065
0.02141
0.02060
0.01738
0.01822
0.07371
0.07374
0.01893
0.01973
0.01633
0.01590
0.07153
0.07172
0.02041
0.02084
0.01768
0.01722
0.07206
0.07204
0.01998
0.02081
0.01767
0.01695
0.07222
0.07219
0.02035
0.02025
0.01710
0.01720
0.07225
0.07224
0.02034
0.02040
0.01722
0.01707
0.07194
0.07195
0.02056
0.02033
0.01713
0.01737
0.07161
0.07144
0.02072
0.02051
0.01735
0.01753
0.07184
0.07188
0.02050
0.02040
0.01722
0.01735
0.07210
0.07208
0.02017
0.02055
0.01737
0.01689
0.07227
0.07230
0.01978
0.02063
0.01750
0.01676
0.07233
0.07220
0.02011
0.02017
0.01690
0.01668
0.07197
0.07208
0.02044
0.02045
0.01722
0.01729
0.07123
0.07073
0.02115
0.02027
0.01693
0.01810
0.07227
0.07225
0.02024
0.02037
0.01719
0.01719
0.07118
0.07123
0.02095
0.01921
0.01634
0.01808
0.07196
0.07194
0.02051
0.02052
0.01732
0.01727
0.07111
0.07088
0.02016
0.02136
0.01802
0.01708
0.07192
0.07194
0.02012
0.02084
0.01764
0.01707
0.07210
0.07225
0.01965
0.02089
0.01785
0.01621
0.07171
0.07184
0.02040
0.02073
0.01760
0.01721
0.07372
0.07346
0.02005
0.01826
0.01504
0.01700
0.07280
0.07252
0.01872
0.02076
0.01732
0.01591
0.07066
0.07187
0.02297
0.01771
0.01556
0.01828
0.06880
0.06929
0.02211
0.02025
0.01712
0.01925
0.07222
0.07220
0.02039
0.02039
0.01716
0.01721
0.07220
0.07213
0.02085
0.01969
0.01626
0.01773
0.07260
0.07278
0.02063
0.01881
0.01597
0.01735
0.07213
0.07211
0.02038
0.02036
0.01720
0.01721
0.07196
0.07195
0.02053
0.02039
0.01721
0.01733
0.07181
0.07169
0.02058
0.02045
0.01729
0.01739
0.07195
0.07195
0.02046
0.02038
0.01721
0.01731
0.07202
0.07199
0.02032
0.02048
0.01729
0.01707
0.07106
0.07082
0.02054
0.02097
0.01778
0.01729
0.07215
0.07218
0.01999
0.02051
0.01736
0.01696
0.08978
0.08651
0.01834
0.01517
0.01015
0.01667
0.11397
-0.12423
0.06559
0.02632
0.08346
0.02581
0.07312
0.07119
0.01771
0.02281
0.01703
0.01711
0.11777
-0.12967
0.07230
0.02642
0.09179
0.02585
0.07320
0.07220
0.01726
0.02273
0.01812
0.01495
0.07290
0.07326
0.01875
0.02021
0.01712
0.01531
0.07438
0.07445
0.01895
0.01896
0.01568
0.01551
0.07094
0.07093
0.02209
0.01916
0.01576
0.01905
0.07102
0.07096
0.02207
0.01912
0.01565
0.01905
0.07226
0.07223
0.02034
0.02024
0.01697
0.01705
0.07179
0.07156
0.02105
0.01987
0.01684
0.01786
0.07175
0.07156
0.02097
0.01991
0.01691
0.01783
0.07038
0.07253
-0.00417
-0.00557
0.06892
-0.00842
-0.00741
0.07324
-0.00322
-0.00602
0.06745
-0.00986
-0.00546
-0.00852
-0.00416
0.07128
0.07126
-0.00529
-0.00525
0.07059
-0.00653
-0.00579
0.07148
-0.00533
-0.00593
0.07057
-0.00600
-0.00539
-0.00653
-0.00576
0.07035
0.07160
-0.00510
-0.00647
0.07114
-0.00581
-0.00631
0.07072
0.07111
-0.00591
-0.00600
-0.00613
-0.00558
-0.00544
-0.00564
0.07013
0.07156
-0.00527
-0.00624
0.07063
0.07079
-0.00627
-0.00621
0.07180
-0.00489
-0.00583
-0.00554
-0.00700
-0.00580
-0.00522
0.07116
0.07077
-0.00623
-0.00579
0.07117
-0.00547
-0.00549
0.07129
-0.00549
-0.00587
0.07077
-0.00588
-0.00555
-0.00622
-0.00578
0.07101
0.06884
-0.00784
-0.00608
0.07150
-0.00514
-0.00544
0.07297
-0.00434
-0.00710
0.06850
-0.00828
-0.00487
-0.00783
-0.00536
0.05937
0.09726
-0.00731
-0.03152
0.06056
-0.00289
-0.00544
0.05900
-0.00690
-0.00263
0.09972
-0.00611
-0.03000
-0.03153
-0.03358
0.08484
0.06692
-0.01503
-0.00656
0.09844
0.05773
-0.03344
-0.01210
-0.01870
-0.02708
0.06727
-0.00212
-0.00475
0.00254
-0.00900
0.07114
0.07101
-0.00578
-0.00566
0.07097
-0.00582
-0.00569
0.07112
-0.00571
-0.00582
0.07102
-0.00576
-0.00568
-0.00583
-0.00581
0.07094
0.07103
-0.00577
-0.00592
0.07102
0.07097
-0.00579
-0.00581
-0.00579
-0.00583
0.07105
-0.00573
-0.00580
-0.00577
-0.00589
0.06985
0.07206
-0.00504
-0.00701
0.07159
-0.00557
-0.00664
0.07045
-0.00606
-0.00460
0.07071
-0.00560
-0.00501
-0.00669
-0.00650
0.07000
0.07147
-0.00561
-0.00647
0.07187
-0.00530
-0.00700
0.07050
-0.00598
-0.00470
0.07068
-0.00570
-0.00514
-0.00668
-0.00643
0.05740
0.05671
0.07759
0.07851
0.05686
0.05717
0.07791
0.07767
-0.01640
-0.01814
0.05048
-0.01636
-0.01808
0.04996
-0.01744
0.05027
-0.01742
0.05064
0.05358
0.05690
0.07754
0.07377
0.05720
0.05413
0.07554
0.07831
-0.01411
-0.01504
0.04748
-0.01442
-0.01536
0.05024
-0.01582
0.05044
-0.01633
0.04675
0.05642
0.04768
0.07174
0.08354
0.04538
0.06891
0.07344
0.05455
-0.01569
-0.01569
0.05110
-0.00447
-0.02048
0.03124
-0.01131
0.04348
-0.02543
0.03560
0.04861
0.05130
0.07848
0.07277
0.06475
0.05513
0.07115
0.07762
0.00202
-0.01222
0.03184
-0.01342
-0.01132
0.04848
-0.02529
0.03165
-0.01324
0.04880
0.05400
0.05855
0.07907
0.07447
0.05760
0.05459
0.07558
0.07866
-0.01473
-0.01603
0.04768
-0.01541
-0.01734
0.05152
-0.01603
0.05089
-0.01656
0.04802
0.05532
0.05636
0.07744
0.07654
0.05644
0.05558
0.07624
0.07733
-0.01391
-0.01536
0.04832
-0.01529
0.04994
-0.01410
-0.01551
0.04964
-0.01551
0.04913
0.05660
0.05616
0.07699
0.07753
0.05619
0.05646
0.07741
0.07717
-0.01471
-0.01611
0.04994
-0.01477
-0.01618
0.04954
-0.01610
0.04944
-0.01614
0.04978
0.05606
0.05649
0.07747
0.07690
0.05637
0.05605
0.07705
0.07729
-0.01467
-0.01608
0.04944
-0.01459
-0.01600
0.04980
-0.01605
0.04973
-0.01597
0.04929
0.05531
0.05642
0.07741
0.07652
0.05651
0.05546
0.07611
0.07754
-0.01390
-0.01533
0.04834
-0.01530
0.04982
-0.01424
-0.01563
0.04978
-0.01567
0.04900
0.05602
0.05642
0.07734
0.07713
0.05678
0.05600
0.07663
0.07765
-0.01485
-0.01620
0.04910
-0.01471
-0.01606
0.04976
-0.01620
0.05019
-0.01611
0.04950
0.05546
0.05601
0.07765
0.07697
0.05688
0.05614
0.07482
0.07598
-0.01591
-0.01704
0.04843
-0.01768
0.05087
-0.01519
-0.01640
0.04908
-0.01684
0.05000
0.05654
0.05632
0.07729
0.07739
0.05627
0.05642
0.07739
0.07719
-0.01481
-0.01630
0.04992
-0.01612
0.04961
-0.01466
-0.01611
0.04960
-0.01602
0.04970
0.05615
0.05581
0.07655
0.07709
0.05566
0.05626
0.07728
0.07680
-0.01401
-0.01530
0.04955
-0.01418
-0.01552
0.04931
-0.01552
0.04874
-0.01563
0.04956
0.05749
0.05523
0.07624
0.07869
0.05432
0.05807
0.07814
0.07449
-0.01504
-0.01656
0.05059
-0.01603
-0.01762
0.04847
-0.01600
0.04812
-0.01749
0.05117
0.05629
0.05385
0.07553
0.07807
0.05440
0.05700
0.07610
0.07367
-0.01345
-0.01506
0.04920
-0.01486
0.04827
-0.01389
-0.01558
0.04681
-0.01510
0.05107
0.05623
0.05660
0.07756
0.07715
0.05644
0.05624
0.07717
0.07738
-0.01468
-0.01616
0.04955
-0.01601
0.04977
-0.01474
-0.01622
0.04992
-0.01606
0.04957
0.05666
0.05670
0.07754
0.07749
0.05672
0.05657
0.07755
0.07775
-0.01581
-0.01694
0.05011
-0.01748
0.04990
-0.01577
-0.01691
0.05012
-0.01744
0.04982
0.05650
0.05622
0.07709
0.07741
0.05624
0.05641
0.07737
0.07719
-0.01468
-0.01607
0.04986
-0.01607
0.04952
-0.01468
-0.01608
0.04957
-0.01607
0.04972
0.05619
0.05639
0.07736
0.07707
0.05632
0.05619
0.07717
0.07722
-0.01467
-0.01607
0.04955
-0.01464
-0.01604
0.04969
-0.01607
0.04967
-0.01603
0.04947
0.05567
0.05634
0.07731
0.07681
0.05642
0.05573
0.07642
0.07743
-0.01424
-0.01565
0.04877
-0.01443
-0.01582
0.04969
-0.01563
0.04972
-0.01584
0.04924
0.05051
0.04455
0.07103
0.08349
0.05251
0.06926
0.07439
0.06454
-0.01538
-0.01183
0.04850
-0.01287
0.04796
0.00843
-0.01795
0.02200
-0.03443
0.01734
0.04515
0.04954
0.08115
0.07187
0.07394
0.05157
0.06054
0.07938
0.01130
-0.01394
0.02147
-0.01703
-0.01151
0.05058
-0.03984
0.01173
-0.01393
0.04763
0.05447
0.05778
0.07822
0.07483
0.05700
0.05478
0.07588
0.07807
-0.01475
-0.01601
0.04819
-0.01601
0.05034
-0.01491
-0.01718
0.05021
-0.01618
0.04802
-0.22627
-0.16925
-0.01966
-0.09550
-0.08903
-0.10547
-0.12263
-0.06778
-0.24264
-0.05658
-0.06762
0.19483
-0.00530
0.20294
0.05837
0.05552
0.07610
0.07898
0.05544
0.05797
0.07885
0.07644
-0.01590
-0.01701
0.05155
-0.01743
0.04865
-0.01635
-0.01793
0.04834
-0.01754
0.05162
0.05882
0.05542
0.07621
0.07979
0.05579
0.05803
0.07871
0.07654
-0.01696
-0.01897
0.05110
-0.01794
0.04948
-0.01661
-0.01810
0.04845
-0.01771
0.05165
0.05620
0.05624
0.07718
0.07716
0.05624
0.05621
0.07712
0.07719
-0.01456
-0.01593
0.04950
-0.01597
0.04957
-0.01458
-0.01595
0.04957
-0.01599
0.04956
0.05647
0.05624
0.07724
0.07739
0.05634
0.05672
0.07767
0.07713
-0.01504
-0.01633
0.04981
-0.01656
0.04974
-0.01500
-0.01629
0.04947
-0.01652
0.05003
0.05639
0.05616
0.07715
0.07734
0.05626
0.05662
0.07753
0.07708
-0.01487
-0.01618
0.04972
-0.01638
0.04964
-0.01489
-0.01618
0.04941
-0.01642
0.04998
0.05531
0.05558
0.07638
0.07657
0.05533
0.05558
0.07638
0.07659
-0.01316
-0.01459
0.04842
-0.01461
0.04839
-0.01379
-0.01518
0.04910
-0.01522
0.04912
-0.01966
-0.01584
-0.01961
-0.01706
0.08586
0.08707
-0.01529
-0.01888
0.08129
-0.02196
-0.01566
0.09016
-0.01451
-0.01789
0.08221
-0.01829
-0.01663
-0.01828
-0.01659
0.08601
0.08586
-0.01674
-0.01729
0.08513
-0.01739
-0.01731
0.08585
-0.01721
-0.01683
0.08507
-0.01721
-0.01649
-0.01765
-0.01806
0.08425
0.08651
-0.01677
-0.01762
0.08565
-0.01727
-0.01747
-0.01718
-0.01737
0.08558
0.08561
-0.01725
-0.01652
-0.01728
-0.01749
0.08450
0.08594
-0.01640
-0.01780
-0.01669
-0.01754
0.08471
0.08545
-0.01873
-0.01706
0.08694
-0.01682
-0.01790
-0.01689
-0.01726
0.08574
0.08531
-0.01788
-0.01689
0.08573
-0.01729
-0.01728
0.08573
-0.01724
-0.01701
0.08530
-0.01681
-0.01898
-0.01684
-0.01684
0.08606
0.08163
-0.01894
-0.01700
0.08624
-0.01981
-0.01740
0.09149
-0.01593
-0.01724
0.08225
-0.01250
-0.01928
0.02387
-0.08815
0.08205
0.02972
-0.01826
-0.01651
0.08439
-0.01648
-0.01441
0.08216
0.02432
-0.08804
0.02911
0.00595
-0.05110
-0.01386
-0.01792
0.05051
0.08494
0.02892
-0.09082
-0.01252
-0.02123
0.01543
0.08603
-0.01946
-0.01888
0.08836
-0.01728
-0.01726
-0.01731
-0.01712
0.08575
0.08551
-0.01718
-0.01717
0.08550
-0.01722
-0.01726
0.08572
-0.01727
-0.01714
0.08552
-0.01724
-0.01719
-0.01717
-0.01744
0.08543
0.08560
-0.01727
-0.01721
-0.01722
-0.01731
0.08552
0.08553
-0.01740
-0.01729
0.08570
-0.01714
-0.01651
-0.01759
-0.01860
0.08414
0.08710
-0.01692
-0.01791
0.08596
-0.01848
-0.01590
0.08469
-0.01784
-0.01640
0.08522
-0.01682
-0.01713
-0.01707
-0.01773
0.08448
0.08583
-0.01737
-0.01877
0.08667
-0.01854
-0.01596
0.08472
-0.01776
-0.01649
0.08521
0.04908
0.04894
0.04667
0.04951
0.04861
0.04675
0.04435
0.04967
0.04744
0.08934
-0.00653
-0.00470
0.04709
0.04724
0.05022
0.04805
0.04836
0.04868
0.04850
0.04830
0.04821
0.04791
0.04851
0.04854
0.04893
0.04747
0.04780
0.04836
0.04850
0.04830
0.04720
0.04845
0.04904
0.04830
0.04817
0.04863
0.05019
0.04710
0.04569
0.04848
0.04896
0.04724
0.04844
0.04831
0.04830
0.04811
0.04841
0.04844
0.11491
-0.03224
-0.03948
0.04674
0.04861
0.04917
0.05051
0.04698
0.04707
0.04875
0.04806
0.04801
-0.22160
-0.20674
-0.07054
0.35651
0.05698
-0.08268
-0.22516
-0.18054
-0.20346
0.09195
0.11971
-0.26652
-0.07707
-0.22885
0.05380
-0.15554
-0.09901
-0.20852
-0.14848
-0.11194
-0.21852
-0.15608
-0.19767
-0.10906
-0.14458
-0.16856
0.10000
