# vtk DataFile Version 3.0
Point representing Sub_cellular elem model
ASCII

DATASET UNSTRUCTURED_GRID
POINTS 729 float
0.00591 1.72241 0.69362 
0.00666 1.73151 -1.45503 
1.74740 1.06525 -0.37605 
1.74591 -1.08711 -0.37704 
0.00606 -1.75253 -1.45714 
0.00470 -1.74306 0.69649 
1.07774 -0.01164 1.37625 
-1.07072 -0.01591 1.37731 
1.08449 -0.01031 -2.11740 
-1.06907 -0.01007 -2.12244 
-1.73464 1.06239 -0.38158 
-1.73291 -1.08659 -0.38076 
0.00542 2.04088 -0.37958 
1.03090 1.64707 0.25585 
0.63711 1.00750 1.28708 
-0.62384 1.00416 1.28231 
-1.01876 1.64393 0.25186 
1.03309 1.65058 -1.01126 
0.64238 1.01622 -2.03721 
-0.62688 1.01629 -2.04025 
-1.02087 1.64949 -1.01522 
2.05792 -0.01133 -0.37609 
1.66259 0.62099 0.64867 
1.66822 0.62389 -1.40184 
1.03223 -1.67175 -1.01318 
1.02838 -1.66732 0.25546 
1.66060 -0.64423 0.64872 
1.66794 -0.64539 -1.40278 
0.00511 -2.06100 -0.38054 
0.64192 -1.03689 -2.03883 
-0.62740 -1.03668 -2.04158 
-1.02051 -1.67095 -1.01611 
0.63392 -1.02992 1.29158 
-0.62499 -1.02842 1.29964 
-1.01713 -1.66613 0.25468 
0.00785 0.56116 2.12821 
-1.64906 0.61692 0.64369 
-1.64694 -0.64619 0.64854 
0.00842 -0.00998 -2.43048 
-1.65477 0.62338 -1.40822 
-1.65465 -0.64513 -1.40858 
-2.04419 -0.01298 -0.38145 
0.00550 1.95651 0.19070 
0.52824 1.75522 0.51420 
0.32851 1.42796 1.03594 
-0.31609 1.42639 1.03424 
-0.51642 1.75324 0.51199 
0.00588 1.96120 -0.95048 
0.53024 1.76163 -1.27271 
0.33106 1.43803 -1.79609 
-0.31644 1.43799 -1.79758 
-0.51750 1.76124 -1.27489 
1.45319 1.40666 -0.05339 
1.45459 1.40798 -0.69988 
1.97720 0.56018 -0.37592 
1.77578 0.88274 0.14688 
1.77851 0.88440 -0.89921 
1.97631 -0.58259 -0.37644 
1.45337 -1.42937 -0.70135 
1.45093 -1.42785 -0.05432 
1.77373 -0.90509 0.14635 
1.77781 -0.90623 -0.90028 
0.52957 -1.78273 -1.27487 
0.00545 -1.98207 -0.95226 
0.33043 -1.45892 -1.79818 
-0.31706 -1.45877 -1.79944 
-0.51782 -1.78233 -1.27655 
0.52623 -1.77506 0.51504 
0.00497 -1.97615 0.19108 
0.32595 -1.44955 1.04056 
-0.31747 -1.44926 1.04199 
-0.51623 -1.77439 0.51502 
0.90252 0.51171 1.40232 
1.41986 0.31009 1.07108 
1.41881 -0.33391 1.07145 
0.90087 -0.53538 1.40352 
0.57520 -0.01231 1.64824 
-0.89220 0.50978 1.39625 
-0.88803 -0.53607 1.41803 
-0.57656 -0.00902 1.64504 
-1.40840 0.30622 1.06789 
-1.40656 -0.33798 1.07474 
0.90318 0.51331 -2.14746 
1.42638 0.31314 -1.82353 
1.42627 -0.33418 -1.82406 
0.90295 -0.53386 -2.14833 
0.57977 -0.01011 -2.34809 
-0.88743 0.51349 -2.15180 
-0.88771 -0.53363 -2.15245 
-0.56335 -0.00995 -2.35097 
-1.41192 0.31323 -1.82968 
-1.41201 -0.33393 -1.82999 
-1.44074 1.40332 -0.05838 
-1.44239 1.40596 -0.70493 
-1.76232 0.87893 0.14143 
-1.76569 0.88281 -0.90519 
-1.96383 0.55761 -0.38164 
-1.44116 -1.42846 -0.70490 
-1.43851 -1.42684 -0.05655 
-1.76005 -0.90538 0.14380 
-1.76489 -0.90588 -0.90516 
-1.96272 -0.58303 -0.38102 
0.56169 1.93869 -0.07338 
-0.55061 1.93710 -0.07555 
0.56238 1.94070 -0.68373 
-0.55101 1.93976 -0.68590 
0.90341 1.37758 0.82613 
1.05663 1.75136 -0.37744 
1.39794 1.19192 0.52228 
0.00633 1.03334 1.38637 
1.20772 0.88532 1.01633 
0.31122 0.53538 1.62312 
-0.89042 1.37433 0.82192 
-0.29496 0.52965 1.61524 
-1.19489 0.88204 1.01080 
-1.04504 1.74915 -0.38127 
-1.38474 1.18804 0.51695 
0.90786 1.38471 -1.58252 
1.40210 1.19574 -1.27633 
0.00800 1.04078 -2.14027 
1.21378 0.89015 -1.77050 
0.31396 0.54637 -2.32810 
-0.89408 1.38443 -1.58641 
-0.29731 0.54646 -2.32967 
-1.19940 0.89007 -1.77580 
-1.38910 1.19491 -1.28174 
1.95463 0.29363 0.17974 
1.95803 0.29467 -0.93211 
1.95382 -0.31681 0.17955 
1.95778 -0.31673 -0.93249 
1.76340 -0.01193 0.67301 
1.76985 -0.01077 -1.42651 
1.05507 -1.77196 -0.37882 
1.40152 -1.21716 -1.27798 
0.56152 -1.96131 -0.68543 
0.90730 -1.40585 -1.58454 
1.39491 -1.21366 0.52232 
0.56038 -1.95842 -0.07423 
0.90023 -1.39875 0.82784 
1.20493 -0.90818 1.01771 
1.21344 -0.91120 -1.77193 
-0.55076 -1.96065 -0.68681 
-0.55000 -1.95758 -0.07512 
0.00745 -1.06119 -2.14183 
0.31366 -0.56656 -2.32897 
-0.89441 -1.40541 -1.58780 
-0.29765 -0.56648 -2.33047 
-1.19966 -0.91084 -1.77670 
-1.04379 -1.77077 -0.38094 
-1.38887 -1.21657 -1.28245 
0.00300 -1.05680 1.39697 
0.30707 -0.55638 1.62988 
-0.88960 -1.39808 0.83011 
-0.29604 -0.55130 1.64286 
-1.19260 -0.90891 1.02354 
-1.38218 -1.21335 0.52263 
-1.74969 -0.01570 0.67034 
-1.94053 0.29030 0.17489 
-1.93961 -0.31883 0.17583 
-1.75631 -0.01091 -1.43305 
-1.94481 0.29359 -0.93839 
-1.94451 -0.31708 -0.93836 
0.00571 1.85593 0.45340 
0.26620 1.75552 0.61454 
0.16679 1.59201 0.87429 
-0.15470 1.59129 0.87354 
-0.25444 1.75445 0.61342 
0.00625 1.86297 -1.21392 
0.26767 1.76341 -1.37456 
0.16839 1.60211 -1.63551 
-0.15439 1.60206 -1.63623 
-0.25463 1.76326 -1.37567 
1.61761 1.24598 -0.21511 
1.61838 1.24655 -0.53744 
1.87885 0.82390 -0.37594 
1.77852 0.98475 -0.11528 
1.77983 0.98560 -0.63683 
1.87762 -0.84605 -0.37671 
1.61698 -1.26814 -0.53866 
1.61571 -1.26756 -0.21613 
1.77672 -1.00680 -0.11606 
1.77877 -1.00747 -0.63787 
0.26705 -1.78448 -1.37673 
0.00573 -1.88399 -1.21594 
0.16775 -1.62309 -1.63766 
-0.15501 -1.62299 -1.63826 
-0.25513 -1.78429 -1.37760 
0.26462 -1.77559 0.61633 
0.00487 -1.87587 0.45485 
0.16492 -1.61310 0.87809 
-0.15595 -1.61297 0.87840 
-0.25502 -1.77528 0.61640 
1.00580 0.24808 1.40506 
1.26012 0.14771 1.23835 
1.25988 -0.17124 1.23839 
1.00592 -0.27140 1.40486 
0.83832 -0.01147 1.52119 
-0.99859 0.24519 1.40145 
-0.99244 -0.27544 1.41597 
-0.83438 -0.01466 1.52190 
-1.25085 0.14361 1.23670 
-1.24849 -0.17673 1.24275 
1.00455 0.25073 -2.14917 
1.26537 0.15093 -1.98771 
1.26531 -0.17174 -1.98798 
1.00444 -0.27129 -2.14961 
0.84331 -0.01020 -2.24920 
-0.98891 0.25095 -2.15395 
-0.98904 -0.27105 -2.15427 
-0.82735 -0.00999 -2.25329 
-1.25040 0.15114 -1.99341 
-1.25046 -0.17149 -1.99359 
-1.60500 1.24281 -0.22040 
-1.60595 1.24407 -0.54279 
-1.76543 0.98136 -0.12079 
-1.76712 0.98335 -0.64256 
-1.86579 0.82110 -0.38165 
-1.60437 -1.26739 -0.54233 
-1.60292 -1.26680 -0.21917 
-1.76338 -1.00655 -0.11933 
-1.76584 -1.00704 -0.64217 
-1.86430 -0.84593 -0.38083 
0.00539 2.01904 -0.08981 
0.00559 2.02136 -0.66951 
0.29011 2.01485 -0.23081 
-0.27927 2.01411 -0.23194 
0.29035 2.01592 -0.52726 
-0.27931 2.01535 -0.52838 
0.78587 1.71891 0.39351 
1.25570 1.54192 0.10526 
0.81042 1.81504 0.09148 
0.98521 1.52791 0.55167 
1.05075 1.72428 -0.05605 
1.22544 1.43766 0.40424 
0.48801 1.23240 1.17393 
0.77797 0.76831 1.36224 
0.78513 1.20315 1.07284 
0.33001 1.03001 1.36063 
0.93330 0.96564 1.16584 
0.47409 0.78626 1.46857 
-0.47515 1.22981 1.17095 
-0.76542 0.76566 1.35573 
-0.31701 1.02744 1.35770 
-0.77198 1.19996 1.06851 
-0.46007 0.78238 1.46265 
-0.92037 0.96257 1.16030 
-0.77390 1.71622 0.39031 
-1.24340 1.53857 0.10068 
-0.79889 1.81261 0.08836 
-0.97259 1.52461 0.54755 
-1.03901 1.72154 -0.05993 
-1.21269 1.43404 0.39946 
0.78809 1.72380 -1.15043 
1.25759 1.54420 -0.85950 
0.81175 1.81787 -0.84773 
1.05183 1.72598 -0.69896 
0.98855 1.53331 -1.30769 
1.22863 1.44151 -1.15895 
0.49073 1.24083 -1.93151 
0.78129 0.77117 -2.10993 
0.79034 1.21143 -1.82814 
0.32988 1.03545 -2.11352 
0.93891 0.97125 -1.91940 
0.47846 0.79530 -2.20474 
-0.47560 1.24084 -1.93378 
-0.76559 0.77130 -2.11368 
-0.31400 1.03550 -2.11510 
-0.77566 1.21138 -1.83172 
-0.46229 0.79541 -2.20708 
-0.92395 0.97128 -1.92370 
-0.77565 1.72310 -1.15358 
-1.24546 1.54266 -0.86409 
-0.79997 1.81677 -0.85085 
-1.04008 1.72435 -0.70283 
-0.97563 1.53268 -1.31168 
-1.21598 1.44053 -1.16367 
2.03769 0.27892 -0.37598 
2.03723 -0.30151 -0.37624 
2.03129 0.13686 -0.09158 
2.03311 0.13727 -0.66059 
2.03097 -0.15980 -0.09169 
2.03294 -0.15963 -0.66075 
1.73686 0.76026 0.40420 
1.55565 0.46936 0.87303 
1.54583 0.91717 0.60356 
1.45328 0.76832 0.84330 
1.83067 0.45770 0.42822 
1.73787 0.30914 0.66777 
1.74108 0.76265 -1.15692 
1.56221 0.47247 -1.62635 
1.55082 0.92064 -1.35707 
1.45935 0.77224 -1.59709 
1.83534 0.45956 -1.18096 
1.74390 0.31120 -1.42104 
1.25656 -1.56545 -0.86121 
0.78735 -1.74493 -1.15251 
1.05067 -1.74692 -0.70065 
1.22789 -1.46285 -1.16079 
0.81084 -1.83879 -0.84960 
0.98789 -1.55455 -1.30972 
1.25322 -1.56263 0.10454 
0.78352 -1.73884 0.39362 
1.04872 -1.74459 -0.05702 
1.22249 -1.45858 0.40412 
0.80850 -1.83489 0.09082 
0.98226 -1.54847 0.55216 
1.73471 -0.78304 0.40395 
1.55404 -0.49300 0.87333 
1.82927 -0.48099 0.42807 
1.73681 -0.33283 0.66779 
1.54315 -0.93973 0.60365 
1.45080 -0.79139 0.84384 
1.74064 -0.78434 -1.15797 
1.56203 -0.49374 -1.62712 
1.83508 -0.48133 -1.18161 
1.74376 -0.33272 -1.42153 
1.55040 -0.94211 -1.35840 
1.45905 -0.79350 -1.59830 
0.00524 -2.04190 -0.67092 
0.00503 -2.03879 -0.09019 
0.28969 -2.03623 -0.52866 
0.28935 -2.03469 -0.23175 
-0.27928 -2.03584 -0.52932 
-0.27915 -2.03426 -0.23229 
0.49017 -1.26161 -1.93341 
0.78094 -0.79176 -2.11120 
0.78983 -1.23236 -1.83002 
0.93851 -0.99210 -1.92096 
0.32936 -1.05597 -2.11513 
0.47806 -0.81572 -2.20601 
-0.47619 -1.26142 -1.93541 
-0.76600 -0.79154 -2.11467 
-0.31456 -1.05586 -2.11656 
-0.77615 -1.23205 -1.83314 
-0.46275 -0.81558 -2.20819 
-0.92437 -0.99180 -1.92484 
-0.77567 -1.74432 -1.15489 
-1.24467 -1.56454 -0.86453 
-0.79963 -1.83800 -0.85175 
-0.97568 -1.55394 -1.31290 
-1.03926 -1.74591 -0.70322 
-1.21568 -1.46213 -1.16450 
0.48515 -1.25462 1.17866 
0.77542 -0.79180 1.36491 
0.78193 -1.22502 1.07600 
0.93034 -0.98839 1.16836 
0.32730 -1.05322 1.36707 
0.47071 -0.80870 1.47409 
-0.47685 -1.25389 1.18260 
-0.76338 -0.78877 1.37909 
-0.32035 -1.05180 1.37221 
-0.77207 -1.22433 1.08086 
-0.46232 -0.80522 1.48535 
-0.91898 -0.98746 1.17697 
-0.77295 -1.73784 0.39332 
-1.24132 -1.56144 0.10311 
-0.79777 -1.83377 0.08982 
-1.03747 -1.74332 -0.05859 
-0.97118 -1.54752 0.55259 
-1.21053 -1.45762 0.40389 
0.14389 -0.52563 1.87097 
-0.07854 -0.52606 2.14788 
0.48873 0.12457 1.92520 
0.39534 -0.36679 2.57378 
-0.33378 -0.40507 1.93039 
-0.47026 -0.17557 2.04747 
-1.54282 0.46540 0.86873 
-1.72317 0.75622 0.39889 
-1.44020 0.76458 0.83801 
-1.53240 0.91318 0.59812 
-1.72421 0.30503 0.66386 
-1.81671 0.45376 0.42345 
[...]
CELL_DATA 2179
SCALARS Strain double 
LOOKUP_TABLE default 
-0.08751
-0.09016
-0.08758
-0.08860
-0.08930
-0.08825
-0.08702
-0.08788
-0.08757
-0.08727
-0.08832
-0.08738
-0.08753
-0.08804
-0.08831
-0.08799
-0.08764
-0.08830
-0.08767
-0.08801
-0.08714
-0.08798
-0.08780
-0.08758
-0.08741
-0.09052
-0.08455
-0.08749
-0.08580
-0.09133
-0.10013
-0.07471
-0.07484
-0.10020
-0.07078
-0.09707
-0.09090
-0.08012
-0.07475
-0.08732
-0.08749
-0.08752
-0.08768
-0.08739
-0.08751
-0.08744
-0.08754
-0.08745
-0.08766
-0.08737
-0.08870
-0.08740
-0.08757
-0.08829
-0.08822
-0.08888
-0.08782
-0.08664
-0.08626
-0.08967
-0.03520
-0.03525
0.06996
0.06845
0.06870
0.07000
-0.03689
-0.03623
0.06987
0.06964
0.06881
0.06922
-0.02856
-0.04520
0.08135
0.05109
0.07160
0.09343
-0.02961
-0.04744
0.05182
0.08089
0.09374
0.07349
-0.03573
-0.03536
0.06826
0.06967
0.06885
0.06786
-0.03343
-0.03348
0.06923
0.06847
0.06865
0.06941
-0.03420
-0.03413
0.06919
0.06991
0.06984
0.06934
-0.03407
-0.03405
0.06998
0.06906
0.06920
0.06996
-0.03378
-0.03379
0.06964
0.06841
0.06854
0.06950
-0.03404
-0.03414
0.06870
0.06881
0.06889
0.06888
-0.03388
-0.03339
0.06757
0.06760
0.06814
0.06696
-0.03463
-0.03449
0.06992
0.06944
0.06924
0.07002
-0.03364
-0.03355
0.06895
0.06921
0.06901
0.06883
-0.03609
-0.03686
0.07084
0.06734
0.06830
0.07214
-0.03392
-0.03389
0.06957
0.06625
0.06629
0.06937
-0.03474
-0.03466
0.06948
0.06996
0.06982
0.06967
-0.03382
-0.03322
0.06833
0.06874
0.06887
0.06807
-0.03410
-0.03401
0.06910
0.07001
0.07006
0.06923
-0.03407
-0.03406
0.06994
0.06937
0.06944
0.06982
-0.03438
-0.03464
0.06918
0.06959
0.07002
0.06923
-0.02991
-0.04869
0.08322
0.07465
0.05121
0.09554
-0.02365
-0.04409
0.04263
0.09046
0.10499
0.06632
-0.03782
-0.03664
0.06759
0.07331
0.07546
0.06626
-0.10817
-0.04422
0.16825
0.01643
0.13065
-0.03271
-0.03303
0.06647
0.06790
0.06720
0.06674
-0.03195
-0.03169
0.07334
0.06185
0.06244
0.07353
-0.03389
-0.03388
0.06957
0.06944
0.06944
0.06958
-0.03455
-0.03465
0.06989
0.06941
0.06944
0.06990
-0.03367
-0.03348
0.06916
0.06924
0.06930
0.06890
-0.03579
-0.03612
0.06832
0.07134
0.07072
0.06854
-0.06610
-0.04584
0.07938
0.07751
0.03220
0.03380
-0.06841
-0.04778
0.07940
0.07967
0.03338
0.03382
-0.06568
-0.04508
0.08076
0.07560
0.03007
0.03568
-0.06646
-0.04562
0.07564
0.08135
0.03593
0.03051
-0.06729
-0.04655
0.07753
0.08025
0.03363
0.03215
-0.06653
-0.04602
0.07964
0.08041
0.03484
0.03399
-0.06495
-0.04425
0.07964
0.07913
0.03324
0.03398
-0.06586
-0.04511
0.07937
0.08043
0.03471
0.03392
-0.06560
-0.04492
0.08042
0.07914
0.03371
0.03468
-0.06528
-0.04460
0.08022
0.07891
0.03311
0.03433
-0.06680
-0.04658
0.07892
0.07991
0.03452
0.03367
-0.06522
-0.04441
0.07877
0.07968
0.03366
0.03321
-0.06553
-0.04484
0.07889
0.07931
0.03355
0.03337
-0.06600
-0.04508
0.07947
0.07861
0.03245
0.03336
-0.06633
-0.04558
0.08000
0.07953
0.03418
0.03456
-0.06595
-0.04512
0.07929
0.07946
0.03362
0.03349
-0.06548
-0.04462
0.07945
0.07935
0.03338
0.03351
-0.06669
-0.04643
0.08000
0.07867
0.03351
0.03492
-0.06558
-0.04480
0.07933
0.07829
0.03252
0.03336
-0.06618
-0.04559
0.07967
0.07967
0.03432
0.03429
-0.06507
-0.04437
0.07956
0.07926
0.03359
0.03394
-0.06597
-0.04507
0.07945
0.07997
0.03430
0.03366
-0.06578
-0.04503
0.07939
0.08047
0.03481
0.03391
-0.06560
-0.04492
0.08038
0.07942
0.03391
0.03455
-0.06554
-0.04502
0.07994
0.07941
0.03395
0.03421
-0.06859
-0.04781
0.07769
0.08335
0.03632
0.03207
-0.06312
-0.04329
0.07764
0.07769
0.03190
0.03194
-0.06640
-0.04690
0.08468
0.07460
0.03073
0.03964
-0.06299
-0.04153
0.07287
0.08501
0.03765
0.02694
-0.06972
-0.04900
0.07815
0.08461
0.03766
0.03321
-0.05993
-0.04372
0.07934
0.07488
0.03412
0.03577
-0.06175
-0.04331
0.07739
0.07464
0.03189
0.03357
-0.06337
-0.04437
0.07505
0.07864
0.03488
0.03170
-0.05672
-0.04363
0.08089
0.06768
0.03129
0.03777
-0.02993
-0.06291
0.13833
0.13827
0.02561
0.02614
-0.05304
-0.04242
0.06224
0.07703
0.03849
0.02885
-0.06783
-0.05561
0.07735
0.08966
0.05067
0.04148
-0.05123
0.12095
0.10246
0.02549
0.02561
-0.06237
-0.04308
0.07407
0.07801
0.03447
0.02985
-0.06556
-0.04365
0.08758
0.07252
0.02624
0.04101
-0.06552
-0.04490
0.07986
0.07980
0.03399
0.03429
-0.06568
-0.04517
0.07971
0.08014
0.03442
0.03390
-0.06587
-0.04537
0.08016
0.07991
0.03414
0.03446
-0.06541
-0.04478
0.08001
0.07962
0.03383
0.03440
-0.06546
-0.04475
0.07989
0.07972
0.03409
0.03423
-0.06549
-0.04485
0.07967
0.08010
0.03442
0.03390
-0.06556
-0.04489
0.07992
0.07990
0.03436
0.03423
-0.06542
-0.04472
0.07975
0.07993
0.03424
0.03412
-0.06582
-0.04527
0.08009
0.07989
0.03424
0.03445
-0.06536
-0.04463
0.07971
0.07986
0.03416
0.03386
-0.06688
-0.04619
0.07902
0.07936
0.03374
0.03364
-0.06536
-0.04465
0.07885
0.07925
0.03367
0.03325
-0.06529
-0.04424
0.07901
0.07792
0.03194
0.03261
-0.06631
-0.04557
0.07925
0.08021
0.03454
0.03366
-0.06660
-0.04628
0.07839
0.08046
0.03518
0.03313
-0.06675
-0.04578
0.08136
0.07891
0.03331
0.03500
-0.06632
-0.04643
0.08241
0.07610
0.03183
0.03790
-0.06399
-0.04277
0.07498
0.08188
0.03522
0.02923
-0.06446
-0.04407
0.07882
0.07893
0.03339
0.03315
-0.06798
-0.04723
0.08186
0.07911
0.03374
0.03568
0.07242
0.07242
0.01883
0.01939
0.01610
0.01591
0.07076
0.07071
0.02022
0.01950
0.01613
0.01705
0.07141
0.07158
0.02117
0.01939
0.01611
0.01799
0.07246
0.07232
0.02024
0.01932
0.01609
0.01699
0.07387
0.07728
0.02043
0.01459
0.01423
0.01405
0.07098
0.07090
0.02102
0.01967
0.01616
0.01796
0.07108
0.07052
0.02049
0.01827
0.01469
0.01796
0.07808
0.07792
0.02209
0.02202
0.01754
0.01779
0.07125
0.07032
0.02181
0.01784
0.01405
0.01858
0.11778
-0.00038
0.06730
0.02549
0.08183
0.02534
0.07706
0.07385
0.01557
0.01896
0.01288
0.01540
0.12303
0.00070
0.08108
0.02543
0.08204
0.02551
0.07170
0.06983
0.01908
0.01921
0.01402
0.01718
0.07101
0.07089
0.02006
0.02009
0.01698
0.01695
0.07026
0.07037
0.02026
0.01831
0.01537
0.01733
0.07134
0.07153
0.02039
0.02097
0.01773
0.01732
0.07212
0.07229
0.01968
0.02068
0.01763
0.01667
0.07247
0.07249
0.02035
0.02017
0.01709
0.01724
0.07224
0.07210
0.02016
0.02068
0.01743
0.01683
0.07195
0.07203
0.02068
0.02039
0.01716
0.01755
0.07140
0.07122
0.02097
0.02054
0.01733
0.01778
0.07182
0.07190
0.02075
0.02052
0.01730
0.01757
0.07245
0.07243
0.02009
0.02053
0.01733
0.01679
0.07191
0.07189
0.01969
0.02089
0.01775
0.01665
0.07103
0.07084
0.01993
0.01953
0.01627
0.01688
0.07139
0.07155
0.01982
0.02096
0.01780
0.01679
0.07160
0.07187
0.01975
0.01903
0.01610
0.01635
0.07157
0.07177
0.01976
0.02081
0.01775
0.01662
0.06947
0.06921
0.01925
0.02058
0.01708
0.01613
0.07256
0.07254
0.02006
0.02030
0.01696
0.01673
0.07183
0.07245
0.01937
0.02018
0.01725
0.01583
0.07193
0.07214
0.01976
0.02080
0.01777
0.01661
0.07132
0.07110
0.02007
0.02058
0.01735
0.01724
0.07137
0.07147
0.02036
0.02110
0.01787
0.01731
0.06908
0.06873
0.02179
0.01940
0.01595
0.01902
0.07101
0.07113
0.02169
0.01846
0.01554
0.01778
0.07656
0.07969
0.01855
0.01531
0.01551
0.01171
0.07235
0.07341
0.01673
0.02088
0.01893
0.01222
0.07233
0.07244
0.02072
0.02001
0.01670
0.01744
0.07151
0.07161
0.01977
0.02060
0.01796
0.01639
0.07040
0.07030
0.01846
0.02282
0.01869
0.01552
0.07257
0.07253
0.02032
0.02033
0.01724
0.01720
0.07184
0.07191
0.02077
0.02053
0.01731
0.01762
0.07184
0.07190
0.02070
0.02049
0.01729
0.01733
0.07202
0.07206
0.02075
0.02044
0.01724
0.01761
0.07216
0.07193
0.02054
0.02046
0.01729
0.01741
0.07325
0.07432
0.01936
0.01889
0.01614
0.01581
0.07173
0.07172
0.02093
0.01999
0.01709
0.01753
0.08136
0.07678
0.02672
0.02135
0.01383
0.02378
0.12448
-0.06287
0.07959
0.02534
0.08721
0.02573
0.08538
0.08097
0.01174
0.01991
0.01226
0.01305
0.13530
0.00671
0.05860
0.02562
0.09968
0.02580
0.07366
0.07509
0.02979
0.01150
0.00884
0.02604
0.06672
0.06499
0.02583
0.02040
0.01562
0.02446
0.06844
0.06679
0.01756
0.02488
0.02043
0.01552
0.06983
0.07040
0.01824
0.02206
0.01957
0.01436
0.07539
0.07461
0.01607
0.01995
0.01632
0.01363
0.07192
0.07187
0.02084
0.02000
0.01669
0.01781
0.07254
0.07281
0.01991
0.01963
0.01657
0.01663
0.07123
0.07113
0.01955
0.02154
0.01804
0.01650
0.07019
0.06854
-0.00821
-0.00678
0.07114
-0.00616
-0.00624
0.06739
-0.00932
-0.00551
0.07186
-0.00491
-0.00870
-0.00592
-0.00768
0.07097
0.07150
-0.00510
-0.00564
0.07055
-0.00656
-0.00598
0.07167
-0.00513
-0.00592
0.07030
-0.00619
-0.00526
-0.00666
-0.00561
0.07016
0.07118
-0.00540
-0.00629
0.07090
-0.00638
-0.00664
0.07009
0.07076
-0.00625
-0.00656
-0.00705
-0.00598
-0.00564
-0.00552
0.07049
0.07086
-0.00603
-0.00634
0.07085
0.07053
-0.00657
-0.00630
0.07035
-0.00604
-0.00553
-0.00666
-0.00664
-0.00588
-0.00567
0.07091
0.07065
-0.00624
-0.00596
0.07131
-0.00539
-0.00588
0.07159
-0.00514
-0.00590
0.07059
-0.00603
-0.00540
-0.00612
-0.00566
0.06865
0.07511
-0.00293
-0.00742
0.06944
-0.00840
-0.00888
0.06530
-0.00965
-0.00149
0.07480
-0.00392
-0.01151
-0.00238
-0.00558
0.06315
0.09566
-0.00605
-0.02341
0.05896
-0.00597
-0.00561
0.06157
-0.00550
-0.00438
0.09706
-0.00972
-0.02834
-0.02903
-0.02941
0.09610
0.05565
-0.03373
-0.01083
0.07176
0.07742
-0.00325
-0.00579
-0.02097
-0.00997
0.06378
-0.00123
-0.01281
-0.01093
0.00253
0.07100
0.07115
-0.00580
-0.00568
0.07128
-0.00557
-0.00594
0.07113
-0.00574
-0.00550
0.07097
-0.00597
-0.00562
-0.00576
-0.00562
0.07098
0.07127
-0.00555
-0.00591
0.07121
0.07105
-0.00561
-0.00558
-0.00563
-0.00575
0.07113
-0.00563
-0.00550
-0.00571
-0.00593
0.07038
0.07077
-0.00579
-0.00604
0.07020
-0.00662
-0.00656
0.06966
-0.00747
-0.00679
0.07138
-0.00542
-0.00643
-0.00520
-0.00669
0.07292
0.06978
-0.00657
-0.00453
0.06783
-0.00775
-0.00339
0.07257
-0.00544
-0.00929
0.07041
-0.00674
-0.00734
-0.00549
-0.00425
0.05496
0.05648
0.07732
0.07554
0.05694
0.05576
0.07682
0.07786
-0.01577
-0.01708
0.04858
-0.01577
-0.01705
0.04983
-0.01713
0.05026
-0.01715
0.04896
0.05545
0.05635
0.07730
0.07693
0.05662
0.05601
0.07641
0.07719
-0.01644
-0.01807
0.04853
-0.01741
-0.01999
0.04819
-0.01739
0.05021
-0.01826
0.05018
0.04652
0.05397
0.07814
0.07455
0.05846
0.07056
0.07884
0.07086
-0.02066
-0.01494
0.04757
0.00605
-0.01487
0.03291
-0.01902
0.05256
-0.03846
0.01430
0.05428
0.04722
0.07445
0.07844
0.07559
0.05500
0.06379
0.07953
0.00445
-0.01493
0.03390
-0.02188
-0.01611
0.04882
-0.04433
0.01522
-0.01857
0.05077
0.05560
0.05469
0.07545
0.07726
0.05539
0.05586
0.07641
0.07628
-0.01543
-0.01681
0.04860
-0.01635
-0.01881
0.04687
-0.01675
0.04884
-0.01769
0.04981
0.05532
0.05618
0.07702
0.07645
0.05594
0.05539
0.07617
0.07714
-0.01390
-0.01528
0.04851
-0.01537
0.04903
-0.01407
-0.01541
0.04965
-0.01555
0.04890
0.05677
0.05609
0.07686
0.07777
0.05606
0.05657
0.07742
0.07714
-0.01459
-0.01607
0.05001
-0.01472
-0.01620
0.04953
-0.01591
0.04924
-0.01605
0.04996
0.05592
0.05682
0.07779
0.07668
0.05667
0.05596
0.07702
0.07761
-0.01459
-0.01603
0.04938
-0.01455
-0.01595
0.05013
-0.01594
0.05001
-0.01592
0.04915
0.05521
0.05643
0.07755
0.07628
0.05618
0.05535
0.07617
0.07699
-0.01455
-0.01592
0.04846
-0.01599
0.04963
-0.01416
-0.01554
0.04966
-0.01558
0.04884
0.05566
0.05559
0.07637
0.07660
0.05560
0.05561
0.07668
0.07673
-0.01507
-0.01637
0.04912
-0.01427
-0.01563
0.04908
-0.01662
0.04872
-0.01577
0.04894
0.05439
0.05472
0.07615
0.07588
0.05377
0.05517
0.07541
0.07359
-0.01401
-0.01582
0.04741
-0.01517
0.04723
-0.01478
-0.01632
0.04794
-0.01608
0.04840
0.05627
0.05681
0.07761
0.07696
0.05667
0.05604
0.07714
0.07768
-0.01510
-0.01664
0.04978
-0.01634
0.04992
-0.01504
-0.01657
0.05020
-0.01627
0.04920
0.05566
0.05562
0.07676
0.07686
0.05572
0.05606
0.07687
0.07660
-0.01428
-0.01581
0.04872
-0.01404
-0.01555
0.04894
-0.01562
0.04930
-0.01537
0.04955
0.05528
0.05784
0.07794
0.07558
0.05793
0.05448
0.07558
0.07997
-0.01668
-0.01756
0.04908
-0.01675
-0.01762
0.05210
-0.01833
0.05041
-0.01955
0.04600
0.05386
0.05580
0.07698
0.07481
0.05672
0.05285
0.07325
0.07720
-0.01531
-0.01648
0.04751
-0.01696
0.04966
-0.01385
-0.01521
0.04909
-0.01579
0.04561
0.05668
0.05647
0.07716
0.07739
0.05629
0.05666
0.07767
0.07738
-0.01522
-0.01667
0.05013
-0.01649
0.04944
-0.01523
-0.01668
0.04998
-0.01651
0.04987
0.05608
0.05537
0.07653
0.07710
0.05458
0.05496
0.07577
0.07534
-0.01424
-0.01611
0.04933
-0.01498
0.04820
-0.01383
-0.01579
0.04848
-0.01448
0.04849
0.05692
0.05603
0.07682
0.07788
0.05593
0.05671
0.07759
0.07699
-0.01453
-0.01603
0.05020
-0.01583
0.04913
-0.01459
-0.01607
0.04946
-0.01592
0.05007
0.05614
0.05669
0.07776
0.07697
0.05662
0.05628
0.07727
0.07745
-0.01461
-0.01604
0.04956
-0.01456
-0.01595
0.04985
-0.01599
0.05003
-0.01595
0.04960
0.05640
0.05624
0.07718
0.07703
0.05569
0.05675
0.07826
0.07667
-0.01529
-0.01646
0.05023
-0.01480
-0.01597
0.04955
-0.01699
0.04884
-0.01647
0.04979
0.04722
0.05501
0.08052
0.07591
0.05657
0.07612
0.08103
0.06507
-0.02324
-0.01662
0.04951
-0.02025
0.05293
0.00597
-0.01742
0.03142
-0.04541
0.01176
0.05663
0.04135
0.07086
0.08325
0.06139
0.07348
0.09452
0.08419
0.01658
-0.00903
0.03078
-0.02113
-0.01331
0.04496
-0.03529
0.00280
-0.02590
0.06345
0.05996
0.05454
0.07549
0.08254
0.05399
0.06135
0.08055
0.07348
-0.01702
-0.01879
0.05198
-0.01773
0.04804
-0.01800
-0.02154
0.04551
-0.01776
0.05704
-0.10023
-0.15052
0.06510
0.15588
-0.00311
0.05081
-0.02217
0.05761
0.11608
-0.03738
0.28335
0.07828
0.05503
0.05298
0.07349
0.07501
0.05368
0.05428
0.07592
0.07490
-0.01439
-0.01633
0.04771
-0.01578
0.04732
-0.01248
-0.01308
0.04713
-0.01448
0.04673
0.04794
0.06167
0.08308
0.06976
0.05852
0.05015
0.07087
0.08014
-0.00936
-0.01075
0.04127
-0.01154
0.05070
-0.01477
-0.01743
0.05364
-0.01557
0.04455
0.05623
0.05637
0.07730
0.07716
0.05638
0.05626
0.07717
0.07733
-0.01438
-0.01580
0.04953
-0.01576
0.04967
-0.01434
-0.01575
0.04968
-0.01575
0.04957
0.05633
0.05666
0.07757
0.07728
0.05671
0.05605
0.07694
0.07765
-0.01512
-0.01639
0.04963
-0.01663
0.05007
-0.01517
-0.01645
0.05009
-0.01666
0.04934
0.05623
0.05587
0.07703
0.07721
0.05577
0.05578
0.07665
0.07645
-0.01425
-0.01576
0.04954
-0.01545
0.04939
-0.01401
-0.01558
0.04901
-0.01516
0.04919
0.05777
0.05528
0.07589
0.07819
0.05541
0.05772
0.07932
0.07639
-0.01717
-0.01807
0.05179
-0.01904
0.04842
-0.01582
-0.01701
0.04877
-0.01742
0.05059
-0.01804
-0.01945
-0.01794
-0.01807
0.08561
0.08371
-0.02078
-0.01771
0.08610
-0.01629
-0.01641
0.08265
-0.01890
-0.01982
0.08652
-0.01820
-0.01649
-0.01826
-0.01709
0.08527
0.08608
-0.01659
-0.01736
0.08500
-0.01750
-0.01728
0.08614
-0.01713
-0.01673
0.08481
-0.01820
-0.01669
-0.01897
-0.01743
0.08451
0.08502
-0.01689
-0.01797
0.08573
-0.01752
-0.01765
-0.01686
-0.01790
0.08452
0.08508
-0.01801
-0.01755
-0.01713
-0.01786
0.08522
0.08527
-0.01722
-0.01836
-0.01691
-0.01786
0.08558
0.08547
-0.01842
-0.01664
0.08337
-0.01681
-0.01759
-0.01656
-0.01734
0.08507
0.08502
-0.01737
-0.01748
0.08550
-0.01737
-0.01728
0.08619
-0.01714
-0.01700
0.08528
-0.01974
-0.01535
-0.02046
-0.01938
0.08400
0.08919
-0.01477
-0.02021
0.08366
-0.01690
-0.01181
0.08147
-0.01645
-0.02278
0.09209
-0.01827
-0.01658
0.01304
-0.07310
0.08483
0.03800
-0.01723
-0.01828
0.08220
-0.01835
-0.01844
0.08685
0.02171
-0.08210
0.02145
0.02106
-0.07528
-0.01559
-0.01908
0.01962
0.08369
-0.01615
-0.03199
-0.02521
-0.01333
0.07658
0.09172
-0.01286
-0.02076
0.08118
-0.01705
-0.01739
-0.01721
-0.01705
0.08563
0.08558
-0.01732
-0.01754
0.08604
-0.01757
-0.01696
0.08584
-0.01707
-0.01699
0.08543
-0.01710
-0.01698
-0.01710
-0.01747
0.08545
0.08593
-0.01718
-0.01699
-0.01716
-0.01701
0.08565
0.08560
-0.01752
-0.01689
0.08559
-0.01801
-0.01721
-0.01896
-0.01721
0.08455
0.08453
-0.01682
-0.01793
0.08527
-0.01622
-0.01877
0.08375
-0.01797
-0.01801
0.08617
-0.01860
-0.01834
-0.01796
-0.01637
0.08756
0.08499
-0.01777
-0.01381
0.08017
-0.01668
-0.02062
0.08827
-0.01605
-0.01876
0.08470
0.04899
0.04755
0.04719
0.04761
0.04850
0.04721
0.05013
0.04623
0.04614
0.09976
-0.02152
-0.02114
0.04928
0.04676
0.04572
0.04781
0.04854
0.04865
0.04874
0.04835
0.04821
0.04774
0.04885
0.04837
0.04726
0.04808
0.04654
0.04778
0.04799
0.04894
0.04849
0.04720
0.04798
0.04846
0.04775
0.04885
0.04415
0.05166
0.04795
0.04740
0.04703
0.04971
0.04881
0.04827
0.04837
0.04838
0.04838
0.04828
0.10989
-0.03050
-0.03450
0.05872
0.04758
0.04152
0.04445
0.04660
0.05136
0.04802
0.04902
0.04762
-0.07893
0.00666
-0.17669
0.20262
-0.03203
-0.06813
-0.07666
-0.08840
0.01357
0.01979
-0.09468
0.10805
-0.19618
0.01845
-0.00332
-0.17953
-0.03467
-0.13279
0.17920
-0.03267
-0.02808
0.10981
0.04384
0.04105
0.13147
0.13392
0.14579
0.01951
0.04930
-0.01723
0.01301
-0.07337
0.06084
-0.05824
0.18359
-0.01770
0.01310
0.11514
-0.00806
-0.08114
0.12855
-0.24069
-0.08010
-0.08257
-0.07824
0.24408
0.10745
0.02123
0.09769
0.04762
-0.03639
-0.09817
-0.11294
0.06524
-0.05307
-0.04037
-0.05118
-0.13054
-0.12828
0.00985
0.14220
-0.12483
-0.08277
-0.05220
-0.07436
0.00294
0.23144
0.05694
0.08931
-0.04531
0.03182
-0.10427
-0.02191
-0.13447
0.08689
-0.03977
-0.09963
0.11855
0.13560
-0.11868
0.15700
-0.06485
0.01148
-0.05005
0.06980
-0.11655
-0.09933
0.05149
0.13549
-0.04596
-0.05807
-0.18836
-0.14154
-0.14742
0.04226
-0.13134
0.13513
-0.03291
-0.06444
-0.05302
-0.20459
0.14469
0.02722
-0.02210
0.15729
0.20859
-0.06596
0.09952
0.02107
0.01571
-0.02589
0.33077
-0.05546
0.09346
0.06300
-0.04155
-0.10984
-0.05109
0.22246
0.00081
-0.02598
0.03448
-0.07967
-0.06083
-0.06903
-0.05007
0.33582
0.02902
-0.07034
-0.00749
-0.00641
-0.08795
0.07070
-0.21595
0.22318
0.22288
-0.00278
-0.10343
-0.16869
-0.04495
-0.14294
0.16591
-0.04524
0.14186
-0.15815
0.03705
0.12550
0.21426
-0.02524
0.16981
0.10173
0.15746
0.04735
0.17177
-0.21085
0.20348
0.06800
0.07594
-0.12818
0.10851
-0.02473
-0.12199
0.09364
-0.12034
0.26084
0.17310
0.13117
0.14803
0.45043
-0.04163
-0.00043
0.21910
0.02477
-0.15675
0.05765
0.04668
-0.03541
-0.27361
0.23240
0.22574
-0.04472
0.07486
-0.06635
0.05183
-0.16090
0.00471
-0.01728
0.05470
0.09516
-0.05306
0.06928
0.06450
0.07064
0.14175
0.04756
-0.02698
0.26792
0.22829
-0.17249
-0.06719
0.21576
-0.22845
-0.03872
0.18890
0.01740
0.21573
-0.20064
-0.16932
0.04850
0.28454
0.15467
-0.06274
-0.03370
0.02186
-0.05523
-0.07571
0.00124
0.07721
-0.19241
-0.00728
-0.21264
0.00329
0.06752
0.39654
0.00869
0.03339
-0.09410
-0.12369
0.24387
0.18400
-0.13338
-0.01091
0.03216
-0.18804
0.26007
0.00978
0.04772
0.13408
-0.11731
0.04805
-0.06551
0.26376
-0.16072
0.10460
-0.21720
-0.08309
-0.15534
0.01684
-0.07796
-0.10018
-0.22026
0.15276
-0.14595
0.05665
-0.19063
-0.08967
-0.18238
-0.09769
-0.24731
-0.01744
-0.25492
-0.00452
-0.17315
-0.09315
-0.15254
-0.11746
0.10000
