# vtk DataFile Version 3.0
Point representing Sub_cellular elem model
ASCII

DATASET UNSTRUCTURED_GRID
POINTS 661 float
-0.00125 1.73593 1.00209 
0.00298 1.74057 -1.15020 
1.74055 1.07515 -0.06736 
1.74137 -1.07493 -0.06560 
0.00402 -1.74296 -1.14619 
-0.00006 -1.73501 1.00485 
1.07103 0.00214 1.68218 
-1.07875 -0.00029 1.67665 
1.08132 -0.00132 -1.81010 
-1.07199 -0.00227 -1.81463 
-1.74018 1.07580 -0.07661 
-1.74044 -1.07634 -0.07446 
0.00085 2.05075 -0.07410 
1.02321 1.65673 0.56431 
0.62445 1.01995 1.60126 
-0.63748 1.02438 1.59110 
-1.02530 1.65869 0.55760 
1.02844 1.65968 -0.70510 
0.63880 1.02495 -1.73171 
-0.63034 1.02451 -1.73461 
-1.02439 1.65969 -0.71040 
2.05166 0.00025 -0.06556 
1.65338 0.63331 0.95971 
1.66399 0.63374 -1.09424 
1.02952 -1.66075 -0.70190 
1.02455 -1.65659 0.56734 
1.65439 -0.63209 0.96074 
1.66442 -0.63470 -1.09308 
0.00189 -2.05185 -0.07012 
0.63947 -1.02781 -1.72929 
-0.62962 -1.02839 -1.73180 
-1.02386 -1.66194 -0.70664 
0.62555 -1.01761 1.60275 
-0.63499 -1.02123 1.59142 
-1.02497 -1.65826 0.56022 
0.29842 0.23187 2.39927 
-1.66008 0.63408 0.94902 
-1.65974 -0.63230 0.94978 
0.00528 -0.00213 -2.12324 
-1.65809 0.63288 -1.10202 
-1.65786 -0.63597 -1.10041 
-2.05159 -0.00007 -0.07613 
-0.00024 1.96771 0.49720 
0.52099 1.76621 0.82269 
0.31972 1.44174 1.34747 
-0.32492 1.44349 1.34402 
-0.52320 1.76770 0.81897 
0.00197 1.97056 -0.64550 
0.52626 1.77071 -0.96748 
0.32738 1.44687 -1.49105 
-0.31999 1.44671 -1.49259 
-0.52104 1.77063 -0.97010 
1.44563 1.41622 0.25507 
1.44885 1.41732 -0.39245 
1.97044 0.57087 -0.06623 
1.76746 0.89348 0.45670 
1.77310 0.89434 -0.59099 
1.97088 -0.57044 -0.06532 
1.44984 -1.41768 -0.38998 
1.44678 -1.41601 0.25747 
1.76832 -0.89279 0.45815 
1.77373 -0.89459 -0.58948 
0.52736 -1.77249 -0.96372 
0.00304 -1.97233 -0.64134 
0.32830 -1.44953 -1.48763 
-0.31908 -1.44984 -1.48894 
-0.52013 -1.77309 -0.96601 
0.52231 -1.76587 0.82598 
0.00083 -1.96794 0.50072 
0.32093 -1.43998 1.35000 
-0.32341 -1.44089 1.34560 
-0.52231 -1.76691 0.82161 
0.88870 0.52649 1.71317 
1.41049 0.32418 1.38220 
1.41177 -0.32164 1.38230 
0.89233 -0.52394 1.71153 
0.57234 0.00246 1.94050 
-0.90603 0.52619 1.70127 
-0.90260 -0.52406 1.70373 
-0.57589 0.00361 1.94314 
-1.42032 0.32275 1.37183 
-1.41921 -0.32191 1.37249 
0.89979 0.52208 -1.84119 
1.42287 0.32264 -1.51630 
1.42309 -0.32445 -1.51565 
0.90014 -0.52494 -1.84000 
0.57666 -0.00178 -2.04101 
-0.89067 0.52133 -1.84512 
-0.89026 -0.52576 -1.84361 
-0.56641 -0.00231 -2.04339 
-1.41494 0.32158 -1.52257 
-1.41473 -0.32562 -1.52166 
-1.44681 1.41762 0.24670 
-1.44645 1.41760 -0.40009 
-1.77051 0.89470 0.44662 
-1.76980 0.89408 -0.59986 
-1.97031 0.57115 -0.07651 
-1.44642 -1.41918 -0.39703 
-1.44696 -1.41763 0.24927 
-1.77073 -0.89376 0.44809 
-1.76981 -0.89593 -0.59785 
-1.97052 -0.57142 -0.07540 
0.55587 1.94811 0.23327 
-0.55559 1.94898 0.22994 
0.55771 1.94977 -0.37798 
-0.55491 1.95006 -0.38099 
0.89386 1.38897 1.13736 
1.05065 1.76035 -0.07044 
1.38862 1.20278 0.83244 
-0.00592 1.05039 1.69927 
1.19673 0.89808 1.32849 
0.29050 0.54435 1.93434 
-0.89999 1.39205 1.12921 
-0.31116 0.54892 1.92464 
-1.20732 0.89991 1.31735 
-1.04952 1.76122 -0.07637 
-1.39383 1.20488 0.82295 
0.90397 1.39382 -1.27692 
1.39765 1.20517 -0.96960 
0.00442 1.04912 -1.83488 
1.21006 0.89939 -1.46425 
0.31054 0.55457 -2.02203 
-0.89744 1.39342 -1.28126 
-0.30074 0.55430 -2.02337 
-1.20263 0.89862 -1.46981 
-1.39244 1.20471 -0.97643 
1.94683 0.30540 0.49059 
1.95285 0.30533 -0.62293 
1.94714 -0.30448 0.49108 
1.95307 -0.30544 -0.62243 
1.75560 0.00082 0.98468 
1.76591 -0.00044 -1.11786 
1.05187 -1.76075 -0.06723 
1.39846 -1.20623 -0.96733 
0.55890 -1.95088 -0.37416 
0.90487 -1.39572 -1.27396 
1.38997 -1.20220 0.83453 
0.55713 -1.94856 0.23691 
0.89519 -1.38825 1.14010 
1.19856 -0.89709 1.32970 
1.21066 -0.90132 -1.46238 
-0.55416 -1.95174 -0.37695 
-0.55492 -1.94964 0.23351 
0.00514 -1.05268 -1.83214 
0.31092 -0.55830 -2.02060 
-0.89667 -1.39657 -1.27773 
-0.30032 -0.55859 -2.02181 
-1.20206 -0.90237 -1.46737 
-1.04926 -1.76232 -0.07289 
-1.39204 -1.20748 -0.97349 
-0.00309 -1.04525 1.70098 
0.29398 -0.53717 1.93224 
-0.89891 -1.38995 1.13049 
-0.31387 -0.54618 1.92489 
-1.20559 -0.89757 1.31830 
-1.39352 -1.20333 0.82451 
-1.76189 0.00081 0.97362 
-1.95032 0.30595 0.47965 
-1.95043 -0.30467 0.48012 
-1.75964 -0.00158 -1.12584 
-1.94937 0.30468 -0.63242 
-1.94939 -0.30648 -0.63173 
-0.00074 1.86821 0.76076 
0.25911 1.76769 0.92301 
0.15897 1.60587 1.18411 
-0.16249 1.60651 1.18276 
-0.26137 1.76849 0.92115 
0.00249 1.87219 -0.90906 
0.26388 1.77249 -1.06959 
0.16472 1.61104 -1.33060 
-0.15800 1.61098 -1.33137 
-0.25824 1.77244 -1.07088 
1.61035 1.25570 0.09343 
1.61204 1.25613 -0.22935 
1.87201 0.83415 -0.06674 
1.77090 0.99497 0.19394 
1.77372 0.99550 -0.32833 
1.87265 -0.83381 -0.06540 
1.61296 -1.25618 -0.22725 
1.61135 -1.25545 0.09551 
1.77174 -0.99450 0.19555 
1.77444 -0.99549 -0.32669 
0.26495 -1.77459 -1.06566 
0.00356 -1.87426 -0.90493 
0.16571 -1.61357 -1.32683 
-0.15702 -1.61373 -1.32750 
-0.25724 -1.77488 -1.06678 
0.26036 -1.76711 0.92612 
0.00040 -1.86790 0.76393 
0.16019 -1.60453 1.18674 
-0.16125 -1.60484 1.18499 
-0.26029 -1.76760 0.92384 
0.99512 0.26313 1.71302 
1.25135 0.16228 1.54783 
1.25277 -0.15850 1.54732 
0.99876 -0.25908 1.71119 
0.83266 0.00283 1.82226 
-1.00928 0.26028 1.70360 
-1.00572 -0.26020 1.70624 
-0.83951 0.00008 1.81984 
-1.26158 0.15943 1.53882 
-1.26022 -0.15982 1.53975 
1.00128 0.25960 -1.84242 
1.26206 0.16018 -1.68051 
1.26217 -0.16241 -1.68016 
1.00146 -0.26236 -1.84183 
0.84020 -0.00155 -1.94207 
-0.99199 0.25873 -1.84670 
-0.99178 -0.26326 -1.84594 
-0.83034 -0.00232 -1.94556 
-1.25336 0.15914 -1.68592 
-1.25324 -0.16349 -1.68546 
-1.61080 1.25671 0.08455 
-1.61063 1.25660 -0.23791 
-1.77219 0.99596 0.18426 
-1.77186 0.99568 -0.33749 
-1.87177 0.83465 -0.07658 
-1.61079 -1.25768 -0.23529 
-1.61106 -1.25696 0.08697 
-1.77248 -0.99576 0.18609 
-1.77202 -0.99687 -0.33539 
-1.87203 -0.83506 -0.07494 
0.00029 2.02944 0.21609 
0.00141 2.03091 -0.36432 
0.28501 2.02445 0.07516 
-0.28393 2.02482 0.07351 
0.28574 2.02525 -0.22168 
-0.28350 2.02548 -0.22325 
0.77837 1.72904 0.70200 
1.24799 1.55142 0.41371 
0.80373 1.82446 0.39898 
0.97662 1.53837 0.86134 
1.04395 1.73345 0.25156 
1.21679 1.44782 0.71364 
0.47761 1.24555 1.48720 
0.76348 0.78118 1.67571 
0.77439 1.21528 1.38577 
0.31785 1.04410 1.67466 
0.92126 0.97816 1.47910 
0.45809 0.79821 1.78266 
-0.48599 1.24894 1.48059 
-0.78099 0.78503 1.66268 
-0.33027 1.04752 1.66834 
-0.78339 1.21906 1.37659 
-0.47671 0.80262 1.77203 
-0.93374 0.98167 1.46755 
-0.78057 1.73094 0.69661 
-1.24973 1.55317 0.40603 
-0.80447 1.82590 0.39395 
-0.98053 1.54087 0.85401 
-1.04438 1.73486 0.24529 
-1.22047 1.45007 0.70537 
0.78383 1.73289 -0.84480 
1.25243 1.55338 -0.55273 
0.80706 1.82689 -0.54179 
1.04658 1.73500 -0.39242 
0.98435 1.54247 -1.00185 
1.22406 1.45077 -0.85253 
0.48709 1.24960 -1.62627 
0.77780 0.77990 -1.80408 
0.78664 1.22040 -1.52266 
0.32630 1.04396 -1.80813 
0.93530 0.98023 -1.61361 
0.47496 0.80377 -1.89904 
-0.47912 1.24931 -1.62853 
-0.76896 0.77930 -1.80755 
-0.31755 1.04373 -1.80961 
-0.77908 1.21993 -1.52633 
-0.46576 0.80339 -1.90114 
-0.92729 0.97960 -1.61789 
-0.77914 1.73283 -0.84878 
-1.24915 1.55351 -0.55927 
-0.80366 1.82710 -0.54605 
-1.04395 1.73538 -0.39804 
-0.97900 1.54222 -1.00673 
-1.21938 1.45054 -0.85867 
2.03114 0.29007 -0.06584 
2.03136 -0.28958 -0.06538 
2.02424 0.14851 0.21914 
2.02737 0.14838 -0.35069 
2.02437 -0.14779 0.21938 
2.02748 -0.14815 -0.35045 
1.72798 0.77172 0.71465 
1.54628 0.48260 1.18443 
1.53632 0.92882 0.91425 
1.44324 0.78095 1.15471 
1.82216 0.46969 0.73915 
1.72929 0.32185 0.97913 
1.73631 0.77258 -0.84902 
1.55839 0.48218 -1.31899 
1.54648 0.93028 -1.04993 
1.45542 0.78177 -1.29022 
1.83069 0.46979 -0.87257 
1.73979 0.32129 -1.11293 
1.25348 -1.55409 -0.54988 
0.78493 -1.73432 -0.84129 
1.04774 -1.73572 -0.38919 
1.22503 -1.45184 -0.84976 
0.80823 -1.82797 -0.53823 
0.98535 -1.54393 -0.99874 
1.24926 -1.55126 0.41643 
0.77972 -1.72884 0.70525 
1.04523 -1.73357 0.25469 
1.21814 -1.44746 0.71623 
0.80504 -1.82459 0.40236 
0.97799 -1.53797 0.86426 
1.72890 -0.77081 0.71592 
1.54741 -0.48086 1.18509 
1.82275 -0.46858 0.73993 
1.72983 -0.32031 0.97967 
1.53759 -0.92795 0.91580 
1.44474 -0.77979 1.15589 
1.73685 -0.77316 -0.84766 
1.55872 -0.48356 -1.31806 
1.83102 -0.47031 -0.87176 
1.74001 -0.32220 -1.11234 
1.54711 -0.93130 -1.04820 
1.45595 -0.78321 -1.28869 
0.00247 -2.03236 -0.36021 
0.00133 -2.03013 0.21987 
0.28689 -2.02638 -0.21771 
0.28617 -2.02523 0.07901 
-0.28260 -2.02687 -0.21920 
-0.28306 -2.02578 0.07736 
0.48789 -1.25238 -1.62331 
0.77831 -0.78279 -1.80227 
0.78743 -1.22277 -1.51993 
0.93594 -0.98264 -1.61144 
0.32699 -1.04721 -1.80553 
0.47550 -0.80709 -1.89705 
-0.47829 -1.25283 -1.62523 
-0.76837 -0.78350 -1.80534 
-0.31682 -1.04751 -1.80679 
-0.77829 -1.22348 -1.52309 
-0.46516 -0.80753 -1.89890 
-0.92662 -0.98347 -1.61519 
-0.77839 -1.73522 -0.84480 
-1.24887 -1.55548 -0.55582 
-0.80304 -1.82905 -0.54210 
-0.97833 -1.54493 -1.00303 
-1.04358 -1.73710 -0.39436 
-1.21893 -1.45306 -0.85525 
0.47858 -1.24324 1.48966 
0.76613 -0.77969 1.67506 
0.77558 -1.21402 1.38811 
0.92305 -0.97717 1.48023 
0.31878 -1.03935 1.67687 
0.45966 -0.79380 1.78267 
-0.48384 -1.24553 1.48155 
-0.77737 -0.78140 1.66458 
-0.32669 -1.04283 1.66960 
-0.78167 -1.21627 1.37726 
-0.47369 -0.79990 1.77230 
-0.93132 -0.97860 1.46857 
-0.77994 -1.73031 0.69923 
-1.24968 -1.55295 0.40866 
-0.80400 -1.82607 0.39711 
-1.04416 -1.73525 0.24841 
-0.97993 -1.53959 0.85599 
-1.22020 -1.44901 0.70745 
0.35436 -0.28628 2.18364 
0.18129 -0.29672 2.43008 
0.39923 0.18357 2.19153 
-0.02051 0.19291 2.67175 
-0.19969 -0.47866 2.13796 
-0.34209 -0.32744 2.21002 
-1.55470 0.48249 1.17367 
-1.73286 0.77291 0.70423 
-1.45180 0.78197 1.14393 
-1.54261 0.93034 0.90396 
-1.73588 0.32206 0.96824 
-1.82724 0.47042 0.72833 
-1.55396 -0.48092 1.17426 
[...]
CELL_DATA 1975
SCALARS Strain double 
LOOKUP_TABLE default 
-0.08629
-0.09046
-0.08644
-0.08842
-0.08910
-0.08793
-0.08724
-0.08785
-0.08754
-0.08747
-0.08833
-0.08768
-0.08857
-0.08698
-0.08741
-0.08852
-0.08792
-0.08803
-0.08718
-0.08731
-0.08731
-0.08806
-0.08765
-0.08771
-0.08726
-0.09049
-0.08650
-0.08601
-0.08849
-0.08866
-0.09182
-0.08347
-0.07858
-0.09502
-0.08205
-0.10019
-0.09831
-0.07429
-0.07315
-0.07800
-0.08758
-0.08750
-0.08750
-0.08755
-0.08740
-0.08747
-0.08754
-0.08752
-0.08765
-0.08756
-0.08810
-0.08781
-0.08804
-0.08786
-0.08794
-0.08740
-0.08819
-0.08829
-0.08838
-0.08754
-0.03396
-0.03422
0.06923
0.06843
0.06857
0.06932
-0.03698
-0.03607
0.06884
0.07278
0.07136
0.06770
-0.02937
-0.04995
0.08640
0.04977
0.07460
0.09989
-0.02871
-0.04344
0.05451
0.07686
0.08989
0.07509
-0.03526
-0.03502
0.06812
0.06940
0.06917
0.06787
-0.03372
-0.03380
0.06882
0.06952
0.06935
0.06889
-0.03433
-0.03427
0.06942
0.06997
0.06996
0.06948
-0.03399
-0.03398
0.06983
0.06911
0.06920
0.06976
-0.03408
-0.03413
0.06942
0.06903
0.06900
0.06943
-0.03537
-0.03537
0.06959
0.06982
0.06990
0.06952
-0.03330
-0.03385
0.06601
0.07059
0.07021
0.06629
-0.03411
-0.03412
0.06916
0.06975
0.06968
0.06925
-0.03406
-0.03395
0.06936
0.06930
0.06924
0.06920
-0.03567
-0.03671
0.07124
0.06749
0.06878
0.07272
-0.03356
-0.03407
0.06986
0.06685
0.06656
0.06993
-0.03408
-0.03411
0.06946
0.06937
0.06936
0.06955
-0.03471
-0.03451
0.06891
0.06947
0.06956
0.06877
-0.03411
-0.03409
0.06931
0.06979
0.06982
0.06938
-0.03416
-0.03413
0.06982
0.06926
0.06938
0.06978
-0.03368
-0.03369
0.06948
0.06865
0.06842
0.06946
-0.03036
-0.05160
0.08683
0.07662
0.05027
0.10103
-0.03076
-0.04267
0.05842
0.07796
0.08969
0.07437
-0.03460
-0.03460
0.06860
0.06820
0.06860
0.06851
-0.20862
0.02405
-0.21675
-0.03694
-0.10540
0.07446
-0.03461
-0.03493
0.06677
0.06862
0.06796
0.06777
-0.03490
-0.03513
0.06809
0.06846
0.06764
0.06841
-0.03389
-0.03391
0.06954
0.06943
0.06945
0.06953
-0.03439
-0.03440
0.06948
0.06956
0.06962
0.06932
-0.03445
-0.03460
0.06956
0.06965
0.06969
0.06945
-0.03432
-0.03423
0.06895
0.06847
0.06871
0.06909
-0.06469
-0.04445
0.07904
0.07762
0.03210
0.03331
-0.06890
-0.04819
0.07926
0.08234
0.03578
0.03380
-0.06407
-0.04385
0.08313
0.07466
0.02876
0.03721
-0.06705
-0.04670
0.07691
0.08174
0.03634
0.03322
-0.06686
-0.04603
0.07750
0.08086
0.03447
0.03184
-0.06598
-0.04522
0.07949
0.07999
0.03430
0.03383
-0.06521
-0.04453
0.07946
0.07953
0.03386
0.03377
-0.06590
-0.04521
0.07962
0.08029
0.03465
0.03410
-0.06554
-0.04485
0.08021
0.07931
0.03376
0.03445
-0.06552
-0.04488
0.07996
0.07928
0.03366
0.03422
-0.06666
-0.04635
0.08081
0.07844
0.03345
0.03571
-0.06557
-0.04475
0.08025
0.07888
0.03315
0.03422
-0.06680
-0.04620
0.07982
0.08014
0.03460
0.03419
-0.06474
-0.04396
0.07787
0.07970
0.03371
0.03197
-0.06551
-0.04491
0.07898
0.08002
0.03436
0.03346
-0.06675
-0.04617
0.08013
0.07980
0.03431
0.03443
-0.06584
-0.04503
0.08013
0.07925
0.03357
0.03416
-0.06629
-0.04596
0.08064
0.07829
0.03324
0.03547
-0.06497
-0.04422
0.08000
0.07783
0.03200
0.03394
-0.06543
-0.04485
0.07969
0.07926
0.03362
0.03406
-0.06533
-0.04471
0.07982
0.07933
0.03366
0.03411
-0.06624
-0.04561
0.07986
0.07994
0.03429
0.03422
-0.06565
-0.04496
0.07944
0.08023
0.03450
0.03392
-0.06573
-0.04503
0.08025
0.07942
0.03396
0.03456
-0.06523
-0.04453
0.07986
0.07920
0.03333
0.03410
-0.06891
-0.04810
0.07962
0.08240
0.03567
0.03394
-0.06513
-0.04499
0.07954
0.07772
0.03227
0.03387
-0.06349
-0.04312
0.08357
0.07400
0.02835
0.03825
-0.06701
-0.04704
0.07654
0.08265
0.03890
0.03377
-0.06622
-0.04527
0.07756
0.08075
0.03384
0.03183
-0.05694
-0.04957
0.08678
0.06231
0.03167
0.04885
-0.06698
-0.04555
0.08221
0.07711
0.03150
0.03611
-0.06609
-0.04555
0.07875
0.07815
0.03348
0.03375
-0.05232
-0.04543
0.08177
0.05994
0.02844
0.04210
-0.05077
0.04288
0.11287
0.12761
0.02613
0.02619
-0.05293
-0.03707
0.06863
0.07447
0.03292
0.02887
-0.05939
-0.04100
0.07572
0.07797
0.03311
0.03191
-0.03370
0.13974
0.13915
0.02661
0.02632
-0.06237
-0.04440
0.07296
0.07676
0.03519
0.03107
-0.06372
-0.04503
0.07744
0.07500
0.03294
0.03440
-0.06566
-0.04505
0.08008
0.07982
0.03414
0.03445
-0.06556
-0.04493
0.08001
0.07974
0.03403
0.03427
-0.06557
-0.04493
0.07978
0.07992
0.03418
0.03414
-0.06558
-0.04492
0.07999
0.07978
0.03408
0.03435
-0.06539
-0.04471
0.07983
0.07978
0.03409
0.03415
-0.06548
-0.04481
0.07963
0.07991
0.03429
0.03388
-0.06558
-0.04493
0.07979
0.07987
0.03427
0.03403
-0.06549
-0.04478
0.07971
0.07985
0.03421
0.03409
-0.06577
-0.04518
0.07983
0.07994
0.03427
0.03406
-0.06569
-0.04515
0.07978
0.07994
0.03425
0.03404
-0.06635
-0.04582
0.07926
0.07911
0.03347
0.03343
-0.06577
-0.04503
0.07933
0.07948
0.03376
0.03371
-0.06628
-0.04576
0.07905
0.07904
0.03289
0.03321
-0.06587
-0.04522
0.07957
0.07945
0.03401
0.03404
-0.06598
-0.04525
0.07933
0.07923
0.03333
0.03377
-0.06530
-0.04455
0.07857
0.07965
0.03389
0.03316
-0.06633
-0.04560
0.07843
0.07992
0.03418
0.03273
-0.06654
-0.04599
0.07975
0.07864
0.03288
0.03370
-0.06636
-0.04557
0.07979
0.07969
0.03427
0.03427
-0.06561
-0.04499
0.07875
0.07944
0.03349
0.03325
0.07168
0.07162
0.01859
0.02143
0.01775
0.01559
0.07077
0.07065
0.01979
0.02046
0.01710
0.01672
0.07118
0.07125
0.02059
0.02031
0.01738
0.01736
0.07190
0.07193
0.02009
0.02004
0.01696
0.01684
0.07764
0.08167
0.01965
0.01451
0.01538
0.01199
0.07299
0.07240
0.02018
0.01928
0.01582
0.01726
0.06904
0.06843
0.02267
0.01986
0.01637
0.02011
0.07821
0.08179
0.02244
0.02189
0.01589
0.01549
0.07573
0.07420
0.02249
0.01558
0.01105
0.02036
0.12853
0.10859
0.07571
0.02601
0.09132
0.02554
0.07438
0.07256
0.01794
0.01883
0.01411
0.01661
0.12618
0.27598
0.08490
0.02579
0.08289
0.02544
0.07115
0.06942
0.01688
0.02145
0.01665
0.01510
0.07161
0.07158
0.01984
0.02002
0.01678
0.01677
0.07066
0.07105
0.01949
0.01896
0.01595
0.01588
0.07183
0.07187
0.02010
0.02096
0.01775
0.01697
0.07147
0.07156
0.02040
0.02076
0.01768
0.01719
0.07245
0.07240
0.02048
0.02016
0.01706
0.01733
0.07242
0.07235
0.02041
0.02028
0.01703
0.01720
0.07203
0.07205
0.02077
0.02036
0.01712
0.01758
0.07155
0.07151
0.02070
0.02053
0.01736
0.01746
0.07180
0.07187
0.02067
0.02053
0.01735
0.01755
0.07219
0.07210
0.02012
0.02058
0.01738
0.01689
0.07196
0.07201
0.02003
0.02046
0.01739
0.01686
0.07216
0.07231
0.02089
0.01834
0.01524
0.01748
0.07224
0.07218
0.02046
0.01984
0.01670
0.01725
0.07242
0.07237
0.02066
0.01836
0.01524
0.01741
0.07196
0.07193
0.02065
0.01993
0.01673
0.01740
0.06955
0.06973
0.02082
0.01971
0.01704
0.01735
0.07182
0.07186
0.02054
0.02044
0.01724
0.01736
0.07222
0.07282
0.01971
0.01998
0.01711
0.01621
0.07183
0.07185
0.02034
0.02048
0.01741
0.01712
0.07166
0.07155
0.02006
0.02055
0.01728
0.01710
0.07168
0.07173
0.02043
0.02075
0.01750
0.01726
0.06897
0.06868
0.02229
0.02009
0.01674
0.01939
0.07171
0.07187
0.02120
0.01881
0.01590
0.01747
0.07766
0.08179
0.01939
0.01487
0.01604
0.01142
0.07364
0.07569
0.01723
0.02007
0.01896
0.01164
0.07216
0.07224
0.02045
0.02035
0.01713
0.01727
0.07210
0.07205
0.02052
0.01950
0.01625
0.01732
0.07113
0.07105
0.02033
0.01966
0.01628
0.01719
0.07236
0.07235
0.02032
0.02036
0.01723
0.01719
0.07194
0.07196
0.02069
0.02046
0.01726
0.01751
0.07160
0.07140
0.02086
0.02041
0.01727
0.01766
0.07196
0.07201
0.02064
0.02041
0.01722
0.01750
0.07222
0.07215
0.02022
0.02054
0.01732
0.01689
0.07074
0.07065
0.02023
0.02046
0.01730
0.01712
0.07201
0.07209
0.01970
0.02072
0.01761
0.01672
0.07179
0.07943
0.02413
0.02717
0.02500
0.01727
0.12923
0.05073
0.08293
0.02575
0.08267
0.02624
0.07483
0.07224
0.01887
0.01882
0.01427
0.01711
0.11705
0.19677
0.06218
0.02578
0.07884
0.02640
0.07259
0.07102
0.01914
0.01962
0.01559
0.01611
0.07121
0.07129
0.01903
0.01926
0.01648
0.01596
0.07020
0.07011
0.01825
0.01981
0.01619
0.01564
0.07089
0.07125
0.01952
0.01941
0.01610
0.01644
0.07082
0.07082
0.01982
0.01954
0.01605
0.01654
0.07218
0.07220
0.02025
0.02029
0.01706
0.01692
0.07165
0.07144
0.02045
0.02015
0.01701
0.01735
0.07185
0.07173
0.02061
0.01976
0.01676
0.01741
0.07042
0.06862
-0.00838
-0.00692
0.07267
-0.00430
-0.00541
0.06728
-0.01017
-0.00507
0.07303
-0.00341
-0.00759
-0.00479
-0.00794
0.07085
0.07128
-0.00547
-0.00583
0.07080
-0.00610
-0.00606
0.07143
-0.00530
-0.00579
0.07056
-0.00612
-0.00550
-0.00621
-0.00566
0.07168
0.06995
-0.00618
-0.00473
0.07001
-0.00677
-0.00558
0.07087
0.07132
-0.00520
-0.00569
-0.00648
-0.00731
-0.00563
-0.00668
0.07118
0.07099
-0.00547
-0.00549
0.07157
0.07030
-0.00639
-0.00557
0.06982
-0.00641
-0.00495
-0.00731
-0.00614
-0.00654
-0.00593
0.07116
0.07061
-0.00629
-0.00577
0.07114
-0.00555
-0.00550
0.07148
-0.00540
-0.00598
0.07061
-0.00593
-0.00533
-0.00641
-0.00583
0.07092
0.07267
-0.00450
-0.00507
0.06858
-0.00833
-0.00632
0.06722
-0.01029
-0.00479
0.07324
-0.00243
-0.00718
-0.00518
-0.00804
0.06611
0.08136
-0.01319
-0.02021
0.06502
-0.00355
-0.00449
0.05766
-0.00950
-0.00034
0.09372
-0.01424
-0.03368
-0.01408
-0.02078
0.10136
0.05503
-0.03582
-0.00927
0.09248
0.06327
-0.02494
-0.00734
-0.02947
-0.02708
0.05993
-0.00171
-0.00975
-0.00550
-0.00408
0.07123
0.07108
-0.00572
-0.00552
0.07102
-0.00581
-0.00565
0.07119
-0.00569
-0.00575
0.07106
-0.00575
-0.00557
-0.00579
-0.00574
0.07096
0.07108
-0.00567
-0.00593
0.07110
0.07103
-0.00569
-0.00580
-0.00567
-0.00578
0.07114
-0.00563
-0.00579
-0.00569
-0.00586
0.07059
0.07055
-0.00616
-0.00635
0.07063
-0.00626
-0.00613
0.07055
-0.00660
-0.00639
0.07061
-0.00595
-0.00602
-0.00639
-0.00610
0.06990
0.07085
-0.00619
-0.00672
0.07126
-0.00554
-0.00688
0.07005
-0.00676
-0.00584
0.07078
-0.00561
-0.00569
-0.00641
-0.00665
0.05486
0.05581
0.07668
0.07561
0.05627
0.05567
0.07667
0.07727
-0.01448
-0.01552
0.04835
-0.01473
-0.01589
0.04927
-0.01613
0.04955
-0.01629
0.04889
0.05811
0.05537
0.07668
0.08020
0.05544
0.05863
0.07866
0.07556
-0.01667
-0.01838
0.05065
-0.01680
-0.01999
0.04644
-0.01756
0.04931
-0.01742
0.05322
0.04614
0.05643
0.08185
0.07287
0.06215
0.07580
0.08649
0.07361
-0.02350
-0.01558
0.04939
0.00588
-0.01428
0.02958
-0.02323
0.05623
-0.04599
0.00911
0.05027
0.05072
0.07812
0.07647
0.07507
0.05030
0.06180
0.07650
0.00796
-0.01594
0.02524
-0.01943
-0.01607
0.05053
-0.04342
0.01303
-0.01407
0.04705
0.05613
0.05454
0.07534
0.07730
0.05523
0.05562
0.07669
0.07619
-0.01541
-0.01685
0.04935
-0.01563
-0.01758
0.04733
-0.01667
0.04870
-0.01715
0.04874
0.05614
0.05582
0.07673
0.07699
0.05544
0.05625
0.07745
0.07647
-0.01439
-0.01573
0.04970
-0.01592
0.04862
-0.01419
-0.01553
0.04920
-0.01567
0.04950
0.05680
0.05626
0.07711
0.07773
0.05626
0.05669
0.07761
0.07723
-0.01483
-0.01628
0.05011
-0.01480
-0.01625
0.04965
-0.01617
0.04954
-0.01613
0.05001
0.05595
0.05660
0.07762
0.07678
0.05654
0.05597
0.07699
0.07742
-0.01451
-0.01593
0.04937
-0.01449
-0.01590
0.04986
-0.01590
0.04993
-0.01587
0.04923
0.05581
0.05632
0.07728
0.07671
0.05606
0.05582
0.07676
0.07703
-0.01480
-0.01614
0.04920
-0.01626
0.04937
-0.01451
-0.01585
0.04965
-0.01597
0.04916
0.05670
0.05633
0.07731
0.07756
0.05640
0.05660
0.07763
0.07724
-0.01627
-0.01767
0.05001
-0.01548
-0.01690
0.04960
-0.01767
0.04977
-0.01686
0.04984
0.05647
0.05353
0.07446
0.07743
0.05257
0.05765
0.07939
0.07393
-0.01316
-0.01441
0.05002
-0.01544
0.04503
-0.01470
-0.01555
0.04718
-0.01708
0.05008
0.05655
0.05586
0.07667
0.07743
0.05610
0.05645
0.07746
0.07710
-0.01465
-0.01603
0.04997
-0.01603
0.04934
-0.01463
-0.01600
0.04926
-0.01602
0.04976
0.05587
0.05614
0.07732
0.07688
0.05595
0.05621
0.07713
0.07681
-0.01459
-0.01616
0.04904
-0.01445
-0.01596
0.04939
-0.01588
0.04949
-0.01576
0.04956
0.05526
0.05840
0.07847
0.07541
0.05803
0.05526
0.07683
0.08029
-0.01634
-0.01715
0.04922
-0.01636
-0.01704
0.05282
-0.01818
0.05048
-0.01973
0.04612
0.05373
0.05641
0.07754
0.07461
0.05645
0.05383
0.07502
0.07755
-0.01458
-0.01569
0.04728
-0.01639
0.04968
-0.01392
-0.01485
0.05002
-0.01671
0.04580
0.05600
0.05629
0.07714
0.07692
0.05630
0.05625
0.07718
0.07732
-0.01455
-0.01590
0.04933
-0.01596
0.04958
-0.01468
-0.01605
0.04973
-0.01607
0.04958
0.05637
0.05606
0.07705
0.07736
0.05513
0.05623
0.07707
0.07585
-0.01488
-0.01648
0.04962
-0.01591
0.04866
-0.01540
-0.01684
0.04931
-0.01659
0.04964
0.05663
0.05612
0.07696
0.07761
0.05617
0.05656
0.07747
0.07717
-0.01460
-0.01601
0.04990
-0.01599
0.04944
-0.01462
-0.01604
0.04952
-0.01600
0.04991
0.05614
0.05666
0.07763
0.07693
0.05652
0.05612
0.07716
0.07740
-0.01467
-0.01610
0.04955
-0.01462
-0.01605
0.04995
-0.01604
0.04989
-0.01597
0.04931
0.05534
0.05627
0.07726
0.07649
0.05619
0.05536
0.07604
0.07715
-0.01431
-0.01571
0.04851
-0.01418
-0.01557
0.04962
-0.01573
0.04956
-0.01562
0.04893
0.04660
0.06114
0.08339
0.07075
0.05817
0.07941
0.08470
0.06541
-0.02448
-0.01614
0.05057
-0.02154
0.05432
0.00338
-0.01109
0.04271
-0.04969
0.01201
0.05589
0.05216
0.07794
0.07850
0.07153
0.05516
0.06895
0.07897
0.00251
-0.01659
0.03837
-0.01946
-0.01667
0.05071
-0.03370
0.02254
-0.01675
0.04941
0.05527
0.05484
0.07558
0.07677
0.05590
0.05485
0.07575
0.07696
-0.01491
-0.01621
0.04841
-0.01637
0.04924
-0.01511
-0.01678
0.04778
-0.01682
0.04841
-0.24321
0.15366
0.25459
-0.09803
0.11074
0.23055
-0.03624
-0.09649
-0.09132
-0.00411
0.00409
-0.16670
0.05598
0.05388
0.07303
0.07524
0.05446
0.05507
0.07629
0.07607
-0.01596
-0.01784
0.04915
-0.01704
0.04764
-0.01558
-0.01666
0.04798
-0.01700
0.04832
0.05487
0.05565
0.07576
0.07422
0.05490
0.05527
0.07673
0.07601
-0.01576
-0.01709
0.04855
-0.01723
0.04841
-0.01604
-0.01784
0.04859
-0.01715
0.04843
0.05623
0.05631
0.07726
0.07720
0.05635
0.05624
0.07714
0.07727
-0.01437
-0.01575
0.04951
-0.01580
0.04968
-0.01440
-0.01579
0.04963
-0.01583
0.04958
0.05641
0.05617
0.07724
0.07739
0.05622
0.05633
0.07717
0.07697
-0.01495
-0.01632
0.04971
-0.01635
0.04969
-0.01487
-0.01623
0.04935
-0.01628
0.04974
0.05644
0.05622
0.07724
0.07741
0.05640
0.05647
0.07733
0.07718
-0.01505
-0.01629
0.04973
-0.01661
0.04983
-0.01503
-0.01628
0.04948
-0.01658
0.04981
0.05534
0.05590
0.07674
0.07653
0.05568
0.05544
0.07617
0.07682
-0.01503
-0.01654
0.04846
-0.01633
0.04877
-0.01460
-0.01608
0.04932
-0.01594
0.04898
-0.01626
-0.01975
-0.01675
-0.01819
0.08502
0.08375
-0.02151
-0.01697
0.08983
-0.01456
-0.01701
0.08294
-0.01957
-0.01836
0.08574
-0.01749
-0.01691
-0.01760
-0.01730
0.08505
0.08564
-0.01672
-0.01752
0.08536
-0.01751
-0.01717
0.08603
-0.01712
-0.01700
0.08506
-0.01842
-0.01733
-0.01822
-0.01583
0.08629
0.08314
-0.01698
-0.01717
0.08490
-0.01886
-0.01658
-0.01811
-0.01716
0.08569
0.08580
-0.01885
-0.01681
-0.01803
-0.01702
0.08597
0.08549
-0.01758
-0.01801
-0.01728
-0.01717
0.08613
0.08523
-0.01788
-0.01611
0.08312
-0.01701
-0.01776
-0.01690
-0.01722
0.08543
0.08519
-0.01799
-0.01692
0.08567
-0.01729
-0.01735
0.08598
-0.01728
-0.01677
0.08506
-0.01965
-0.01660
-0.02153
-0.01680
0.08533
0.09030
-0.01738
-0.01753
0.08399
-0.01271
-0.01660
0.08129
-0.01978
-0.01759
0.08604
-0.02001
-0.01901
0.00913
-0.05969
0.09042
0.03729
-0.01976
-0.01781
0.08375
-0.02072
-0.01711
0.08849
0.02143
-0.08233
0.01719
0.02821
-0.08768
-0.01335
-0.01966
0.01828
0.08194
0.01333
-0.07732
-0.01640
-0.01843
0.04422
0.08481
-0.01718
-0.01978
0.08302
-0.01731
-0.01720
-0.01728
-0.01694
0.08589
0.08559
-0.01719
-0.01714
0.08549
-0.01723
-0.01718
0.08574
-0.01719
-0.01699
0.08553
-0.01710
-0.01705
-0.01707
-0.01746
0.08541
0.08568
-0.01722
-0.01707
-0.01715
-0.01736
0.08557
0.08566
-0.01737
-0.01735
0.08574
-0.01780
-0.01753
-0.01829
-0.01800
0.08509
0.08464
-0.01726
-0.01755
0.08543
-0.01805
-0.01783
0.08486
-0.01749
-0.01737
0.08510
-0.01695
-0.01765
-0.01690
-0.01798
0.08419
0.08557
-0.01821
-0.01842
0.08533
-0.01811
-0.01744
0.08440
-0.01794
-0.01711
0.08534
0.04822
0.04722
0.04883
0.04753
0.04808
0.04801
0.05354
0.04382
0.04893
0.11053
-0.04571
-0.03724
0.04701
0.04711
0.04700
0.04824
0.04801
0.04879
0.04872
0.04841
0.04819
0.04792
0.04853
0.04842
0.04856
0.04860
0.04609
0.04851
0.04831
0.04804
0.04861
0.04759
0.04823
0.04831
0.04813
0.04856
0.04395
0.05268
0.04927
0.04837
0.04799
0.04714
0.04865
0.04830
0.04834
0.04788
0.04864
0.04841
0.09363
-0.01440
-0.01018
0.04765
0.04796
0.04698
0.04710
0.04719
0.04714
0.04853
0.04792
0.04814
0.01586
-0.14505
0.09689
-0.00965
0.13214
-0.27008
0.05789
0.13411
0.06968
-0.13238
-0.07449
-0.09913
-0.07319
0.09827
-0.02384
0.03758
-0.00993
0.07049
0.15613
0.01073
0.04757
-0.09152
-0.07182
-0.17746
0.00041
-0.12205
0.19610
-0.17134
-0.20069
-0.06797
0.01457
-0.10383
0.03283
-0.20661
-0.03444
0.00049
-0.06269
-0.15507
0.09250
0.10427
0.24737
-0.27528
-0.27450
0.02558
0.17357
-0.11702
0.00978
-0.03895
0.13392
0.05710
-0.05742
-0.12721
-0.04487
-0.03308
-0.20176
-0.14221
-0.16969
-0.17549
-0.10507
-0.00653
-0.18644
0.10000
