# vtk DataFile Version 3.0
Point representing Sub_cellular elem model
ASCII

DATASET UNSTRUCTURED_GRID
POINTS 647 float
0.00007 1.74664 1.05944 
0.00037 1.74054 -1.08954 
1.74224 1.07496 -0.01263 
1.74237 -1.07762 -0.01286 
0.00020 -1.74289 -1.08916 
0.00026 -1.74416 1.06158 
1.06603 0.00100 1.73695 
-1.07054 0.00178 1.73726 
1.07666 -0.00114 -1.75421 
-1.07613 -0.00123 -1.75429 
-1.74256 1.07542 -0.01372 
-1.74149 -1.07747 -0.01256 
0.00044 2.05306 -0.01455 
1.02831 1.66093 0.62001 
0.63750 1.03292 1.64376 
-0.64042 1.03476 1.64448 
-1.02869 1.66265 0.61857 
1.02702 1.65958 -0.64750 
0.63469 1.02519 -1.67348 
-0.63406 1.02515 -1.67356 
-1.02647 1.65987 -0.64804 
2.05317 -0.00122 -0.01239 
1.66092 0.63227 1.01454 
1.66108 0.63313 -1.03900 
1.02684 -1.66213 -0.64735 
1.02763 -1.66273 0.62051 
1.66084 -0.63478 1.01418 
1.66108 -0.63547 -1.03904 
0.00016 -2.05456 -0.01331 
0.63459 -1.02754 -1.67337 
-0.63413 -1.02759 -1.67337 
-1.02630 -1.66199 -0.64711 
0.63675 -1.02804 1.64523 
-0.63730 -1.02667 1.64669 
-1.02687 -1.66189 0.62103 
0.01291 -0.11124 2.11034 
-1.66321 0.63370 1.01286 
-1.66059 -0.63407 1.01442 
0.00027 -0.00118 -2.06540 
-1.66061 0.63302 -1.03935 
-1.66054 -0.63563 -1.03907 
-2.05297 -0.00139 -0.01290 
0.00038 1.97385 0.55570 
0.52526 1.77444 0.87901 
0.32533 1.45564 1.40019 
-0.32689 1.45717 1.39956 
-0.52519 1.77586 0.87811 
0.00041 1.97094 -0.58509 
0.52402 1.77059 -0.90819 
0.32393 1.44691 -1.43142 
-0.32324 1.44691 -1.43149 
-0.52330 1.77070 -0.90840 
1.44929 1.41738 0.31044 
1.44880 1.41723 -0.33650 
1.97204 0.57001 -0.01241 
1.77238 0.89334 0.51111 
1.77209 0.89365 -0.53615 
1.97221 -0.57254 -0.01258 
1.44877 -1.41988 -0.33658 
1.44915 -1.42004 0.31034 
1.77248 -0.89606 0.51083 
1.77218 -0.89613 -0.53629 
0.52382 -1.77301 -0.90788 
0.00018 -1.97311 -0.58440 
0.32380 -1.44930 -1.43122 
-0.32337 -1.44931 -1.43120 
-0.52340 -1.77296 -0.90777 
0.52455 -1.77422 0.88041 
0.00019 -1.97380 0.55758 
0.32507 -1.45172 1.40192 
-0.32498 -1.45137 1.40217 
-0.52400 -1.77363 0.88073 
0.89425 0.52539 1.76022 
1.41631 0.32141 1.43776 
1.41636 -0.32278 1.43741 
0.89497 -0.52136 1.76015 
0.54099 0.01543 1.97944 
-0.90291 0.52943 1.75789 
-0.89467 -0.52080 1.76269 
-0.54761 0.00438 1.98067 
-1.42046 0.32327 1.43626 
-1.41760 -0.32176 1.43792 
0.89529 0.52237 -1.78432 
1.41883 0.32240 -1.46072 
1.41881 -0.32470 -1.46071 
0.89524 -0.52468 -1.78427 
0.57169 -0.00116 -1.98425 
-0.89472 0.52230 -1.78440 
-0.89475 -0.52475 -1.78431 
-0.57116 -0.00121 -1.98429 
-1.41830 0.32229 -1.46087 
-1.41830 -0.32483 -1.46079 
-1.44987 1.41852 0.30900 
-1.44865 1.41766 -0.33739 
-1.77350 0.89417 0.50966 
-1.77189 0.89370 -0.53684 
-1.97224 0.57009 -0.01331 
-1.44802 -1.41969 -0.33624 
-1.44819 -1.41945 0.31086 
-1.77160 -0.89569 0.51110 
-1.77151 -0.89623 -0.53617 
-1.97156 -0.57265 -0.01263 
0.55762 1.95180 0.29089 
-0.55702 1.95262 0.29021 
0.55721 1.95065 -0.31934 
-0.55648 1.95102 -0.31976 
0.90359 1.39676 1.19047 
1.05196 1.76168 -0.01363 
1.39662 1.20487 0.88715 
-0.00401 1.06899 1.74111 
1.20763 0.89956 1.38154 
0.29993 0.57810 1.93699 
-0.90511 1.39951 1.18897 
-0.30653 0.55624 1.94791 
-1.21140 0.90325 1.37931 
-1.05169 1.76252 -0.01460 
-1.39840 1.20701 0.88516 
0.90083 1.39359 -1.21884 
1.39526 1.20470 -0.91318 
0.00032 1.04967 -1.77520 
1.20632 0.89920 -1.40751 
0.30586 0.55529 -1.96395 
-0.90019 1.39362 -1.21908 
-0.30527 0.55527 -1.96397 
-1.20574 0.89914 -1.40770 
-1.39478 1.20475 -0.91365 
1.95152 0.30407 0.54439 
1.95162 0.30434 -0.56899 
1.95161 -0.30665 0.54426 
1.95168 -0.30669 -0.56905 
1.76183 -0.00122 1.03930 
1.76276 -0.00115 -1.06346 
1.05162 -1.76418 -0.01335 
1.39521 -1.20716 -0.91320 
0.55685 -1.95294 -0.31877 
0.90070 -1.39601 -1.21873 
1.39612 -1.20710 0.88700 
0.55705 -1.95339 0.29189 
0.90242 -1.39661 1.19120 
1.20689 -0.90039 1.38137 
1.20625 -0.90154 -1.40746 
-0.55643 -1.95272 -0.31855 
-0.55659 -1.95293 0.29219 
0.00023 -1.05205 -1.77506 
0.30581 -0.55763 -1.96388 
-0.90023 -1.39603 -1.21864 
-0.30532 -0.55766 -1.96389 
-1.20576 -0.90164 -1.40746 
-1.05095 -1.76370 -0.01292 
-1.39465 -1.20720 -0.91307 
-0.00062 -1.05966 1.74288 
0.31045 -0.54895 1.94320 
-0.90203 -1.39562 1.19176 
-0.29191 -0.55083 1.94781 
-1.20696 -0.89901 1.38232 
-1.39529 -1.20612 0.88761 
-1.76301 -0.00067 1.03858 
-1.95220 0.30428 0.54338 
-1.95141 -0.30660 0.54392 
-1.76227 -0.00133 -1.06366 
-1.95131 0.30417 -0.56946 
-1.95117 -0.30692 -0.56923 
0.00028 1.87669 0.81872 
0.26199 1.77750 0.97982 
0.16195 1.61837 1.23986 
-0.16244 1.61903 1.23954 
-0.26179 1.77832 0.97936 
0.00038 1.87222 -0.84844 
0.26141 1.77240 -1.00956 
0.16168 1.61100 -1.27039 
-0.16096 1.61102 -1.27043 
-0.26067 1.77244 -1.00965 
1.61302 1.25601 0.14851 
1.61284 1.25601 -0.17408 
1.87365 0.83363 -0.01251 
1.77415 0.99488 0.24843 
1.77397 0.99499 -0.27361 
1.87383 -0.83623 -0.01272 
1.61291 -1.25868 -0.17426 
1.61307 -1.25873 0.14830 
1.77430 -0.99759 0.24818 
1.77410 -0.99757 -0.27381 
0.26122 -1.77477 -1.00921 
0.00019 -1.87451 -0.84794 
0.16152 -1.61339 -1.27011 
-0.16111 -1.61339 -1.27009 
-0.26082 -1.77475 -1.00916 
0.26164 -1.77610 0.98164 
0.00022 -1.87551 0.82082 
0.16198 -1.61513 1.24181 
-0.16154 -1.61496 1.24192 
-0.26114 -1.77579 0.98181 
0.99267 0.26075 1.76504 
1.25287 0.15950 1.60352 
1.25310 -0.15949 1.60327 
0.99364 -0.25764 1.76455 
0.81838 0.00388 1.87279 
-1.00321 0.26225 1.76222 
-0.99521 -0.25737 1.76647 
-0.82421 0.00239 1.87342 
-1.25846 0.16053 1.60218 
-1.25543 -0.15863 1.60395 
0.99667 0.25984 -1.78609 
1.25767 0.16015 -1.62477 
1.25765 -0.16244 -1.62476 
0.99665 -0.26213 -1.78606 
0.83535 -0.00115 -1.88576 
-0.99612 0.25976 -1.78616 
-0.99613 -0.26222 -1.78612 
-0.83482 -0.00122 -1.88582 
-1.25713 0.16005 -1.62488 
-1.25714 -0.16255 -1.62485 
-1.61350 1.25678 0.14723 
-1.61294 1.25646 -0.17510 
-1.77483 0.99551 0.24717 
-1.77400 0.99521 -0.27451 
-1.87395 0.83391 -0.01353 
-1.61206 -1.25850 -0.17391 
-1.61211 -1.25837 0.14872 
-1.77337 -0.99733 0.24847 
-1.77333 -0.99757 -0.27359 
-1.87303 -0.83622 -0.01257 
0.00043 2.03345 0.27511 
0.00043 2.03202 -0.30429 
0.28553 2.02748 0.13376 
-0.28471 2.02785 0.13345 
0.28542 2.02683 -0.16256 
-0.28459 2.02708 -0.16281 
0.78341 1.73529 0.75792 
1.25254 1.55386 0.46928 
0.80701 1.82861 0.45561 
0.98400 1.54431 0.91614 
1.04702 1.73607 0.30786 
1.22365 1.45133 0.76867 
0.48675 1.25990 1.53522 
0.77557 0.78701 1.71843 
0.78613 1.22519 1.43538 
0.32585 1.06199 1.71470 
0.93388 0.98373 1.52818 
0.47156 0.81699 1.81135 
-0.48940 1.26190 1.53489 
-0.78162 0.79198 1.71683 
-0.33106 1.06208 1.71577 
-0.78833 1.22814 1.43448 
-0.47521 0.81364 1.81559 
-0.93775 0.98812 1.52631 
-0.78357 1.73699 0.75669 
-1.25308 1.55536 0.46775 
-0.80682 1.82990 0.45454 
-0.98489 1.54655 0.91455 
-1.04702 1.73732 0.30664 
-1.22474 1.45338 0.76687 
0.78194 1.73277 -0.78633 
1.25163 1.55330 -0.49598 
0.80616 1.82720 -0.48365 
1.04639 1.73541 -0.33518 
0.98196 1.54218 -0.94397 
1.22211 1.45043 -0.79550 
0.48328 1.24975 -1.56732 
0.77346 0.78019 -1.74656 
0.78294 1.22037 -1.46447 
0.32214 1.04438 -1.74918 
0.93133 0.98026 -1.55611 
0.47053 0.80427 -1.84085 
-0.48262 1.24973 -1.56740 
-0.77286 0.78014 -1.74664 
-0.32150 1.04436 -1.74922 
-0.78230 1.22035 -1.46461 
-0.46992 0.80424 -1.84089 
-0.93071 0.98021 -1.55625 
-0.78128 1.73296 -0.78670 
-1.25126 1.55367 -0.49670 
-0.80554 1.82756 -0.48417 
-1.04596 1.73594 -0.33591 
-0.98135 1.54230 -0.94434 
-1.22161 1.45059 -0.79602 
2.03269 0.28890 -0.01237 
2.03279 -0.29136 -0.01246 
2.02737 0.14708 0.27251 
2.02740 0.14718 -0.29722 
2.02742 -0.14959 0.27246 
2.02744 -0.14956 -0.29726 
1.73447 0.77130 0.76917 
1.55381 0.48068 1.23966 
1.54449 0.92920 0.96894 
1.45236 0.78059 1.20933 
1.82829 0.46846 0.79353 
1.73601 0.32004 1.03401 
1.73425 0.77187 -0.79399 
1.55484 0.48174 -1.26357 
1.54378 0.92972 -0.99413 
1.45203 0.78136 -1.23424 
1.82849 0.46899 -0.81802 
1.73675 0.32063 -1.05817 
1.25151 -1.55590 -0.49595 
0.78173 -1.73524 -0.78609 
1.04615 -1.73799 -0.33497 
1.22201 -1.45295 -0.79547 
0.80589 -1.82968 -0.48333 
0.98181 -1.54466 -0.94384 
1.25212 -1.55625 0.46941 
0.78260 -1.73618 0.75887 
1.04654 -1.73834 0.30825 
1.22302 -1.45332 0.76883 
0.80637 -1.83029 0.45639 
0.98307 -1.54534 0.91674 
1.73448 -0.77396 0.76885 
1.55373 -0.48282 1.23928 
1.82835 -0.47107 0.79329 
1.73601 -0.32251 1.03379 
1.54421 -0.93162 0.96860 
1.45200 -0.78262 1.20894 
1.73429 -0.77427 -0.79407 
1.55482 -0.48404 -1.26358 
1.82852 -0.47133 -0.81809 
1.73676 -0.32293 -1.05819 
1.54376 -0.93212 -0.99417 
1.45199 -0.78370 -1.23424 
0.00017 -2.03394 -0.30334 
0.00017 -2.03430 0.27668 
0.28505 -2.02879 -0.16167 
0.28509 -2.02900 0.13492 
-0.28469 -2.02863 -0.16155 
-0.28473 -2.02878 0.13507 
0.48316 -1.25212 -1.56717 
0.77339 -0.78252 -1.74648 
0.78283 -1.22274 -1.46435 
0.93124 -0.98260 -1.55603 
0.32204 -1.04674 -1.74905 
0.47046 -0.80661 -1.84075 
-0.48271 -1.25215 -1.56716 
-0.77291 -0.78258 -1.74650 
-0.32159 -1.04676 -1.74906 
-0.78237 -1.22279 -1.46432 
-0.46998 -0.80665 -1.84077 
-0.93076 -0.98267 -1.55603 
-0.78126 -1.73515 -0.78592 
-1.25087 -1.55573 -0.49564 
-0.80540 -1.82947 -0.48308 
-0.98132 -1.54463 -0.94369 
-1.04555 -1.73770 -0.33464 
-1.22145 -1.45290 -0.79526 
0.48618 -1.25539 1.53679 
0.77553 -0.78290 1.71894 
0.78491 -1.22325 1.43634 
0.93293 -0.98238 1.52854 
0.32697 -1.05417 1.71643 
0.47230 -0.80637 1.81408 
-0.48664 -1.25474 1.53739 
-0.77556 -0.78127 1.72125 
-0.32798 -1.05325 1.71750 
-0.78508 -1.22221 1.43711 
-0.47121 -0.80406 1.81704 
-0.93328 -0.98095 1.52980 
-0.78196 -1.73541 0.75931 
-1.25123 -1.55548 0.46997 
-0.80575 -1.82962 0.45682 
-1.04580 -1.73767 0.30874 
-0.98238 -1.54439 0.91727 
-1.22216 -1.45237 0.76942 
0.30608 -0.01871 2.06014 
-0.27859 -0.07741 2.07002 
0.21698 0.18444 2.07907 
-0.10756 0.37649 2.04534 
0.24004 -0.23963 2.04928 
-0.16904 -0.33271 2.03958 
-1.55691 0.48245 1.23802 
-1.73612 0.77239 0.76756 
-1.45554 0.78312 1.20726 
-1.54674 0.93112 0.96698 
-1.73788 0.32092 1.03278 
-1.82971 0.46913 0.79221 
-1.55414 -0.48191 1.23961 
[...]
CELL_DATA 1933
SCALARS Strain double 
LOOKUP_TABLE default 
-0.09160
-0.08536
-0.08952
-0.08999
-0.08482
-0.08793
-0.08741
-0.08771
-0.08760
-0.08748
-0.08808
-0.08720
-0.08767
-0.08722
-0.08767
-0.08743
-0.08719
-0.08778
-0.08733
-0.08770
-0.08749
-0.08766
-0.08752
-0.08759
-0.08746
-0.08634
-0.08944
-0.08904
-0.08838
-0.08659
-0.09906
-0.07375
-0.06906
-0.10361
-0.06216
-0.10296
-0.09877
-0.06555
-0.06825
-0.07462
-0.08757
-0.08753
-0.08755
-0.08754
-0.08752
-0.08753
-0.08758
-0.08754
-0.08762
-0.08750
-0.08802
-0.08700
-0.08779
-0.08815
-0.08719
-0.08739
-0.08789
-0.08727
-0.08753
-0.08769
-0.03611
-0.03553
0.07031
0.06991
0.06970
0.07015
-0.03476
-0.03512
0.07130
0.06686
0.06779
0.07166
-0.02621
-0.03143
0.06287
0.06554
0.06875
0.06160
-0.02404
-0.03712
0.05790
0.06747
0.07820
0.07348
-0.03380
-0.03430
0.07125
0.06554
0.06661
0.07183
-0.03378
-0.03373
0.06922
0.06899
0.06917
0.06922
-0.03421
-0.03419
0.06945
0.06959
0.06959
0.06949
-0.03410
-0.03410
0.06957
0.06932
0.06938
0.06958
-0.03382
-0.03370
0.06958
0.06856
0.06889
0.06952
-0.03439
-0.03433
0.06981
0.06974
0.06975
0.06976
-0.03238
-0.03130
0.06966
0.06781
0.06910
0.06814
-0.03413
-0.03411
0.06936
0.06962
0.06964
0.06940
-0.03384
-0.03390
0.06918
0.06959
0.06962
0.06931
-0.03453
-0.03443
0.06852
0.07083
0.07054
0.06822
-0.03217
-0.03071
0.06886
0.06835
0.06966
0.06763
-0.03414
-0.03412
0.06965
0.06951
0.06954
0.06963
-0.03463
-0.03487
0.06984
0.06968
0.06959
0.06988
-0.03406
-0.03407
0.06948
0.06958
0.06957
0.06950
-0.03412
-0.03412
0.06955
0.06955
0.06956
0.06954
-0.03397
-0.03394
0.06941
0.06943
0.06935
0.06941
-0.02569
-0.03326
0.06912
0.06772
0.05886
0.07424
-0.02262
-0.03264
0.05723
0.07066
0.08174
0.06736
-0.03488
-0.03500
0.07065
0.06877
0.06834
0.07099
0.03419
-0.01656
0.19731
-0.18455
-0.11036
-0.01981
-0.03277
-0.03365
0.06681
0.07136
0.06966
0.06803
-0.03095
-0.03223
0.06760
0.06945
0.06814
0.06907
-0.03407
-0.03407
0.06955
0.06947
0.06949
0.06956
-0.03432
-0.03440
0.06965
0.06955
0.06954
0.06967
-0.03403
-0.03403
0.06948
0.06946
0.06947
0.06946
-0.03414
-0.03426
0.06923
0.06977
0.06972
0.06934
-0.06908
-0.04765
0.08109
0.08050
0.03482
0.03549
-0.06398
-0.04442
0.08113
0.07387
0.03030
0.03591
-0.06754
-0.04577
0.07167
0.08810
0.03857
0.02495
-0.06775
-0.04433
0.08827
0.07111
0.02357
0.03846
-0.06308
-0.04343
0.08061
0.07320
0.02957
0.03558
-0.06624
-0.04592
0.07981
0.08006
0.03452
0.03430
-0.06539
-0.04467
0.07968
0.07949
0.03361
0.03395
-0.06574
-0.04506
0.07964
0.07991
0.03426
0.03407
-0.06561
-0.04494
0.07990
0.07952
0.03396
0.03423
-0.06547
-0.04474
0.07993
0.07936
0.03345
0.03416
-0.06643
-0.04599
0.07951
0.08072
0.03514
0.03386
-0.06517
-0.04452
0.07953
0.07943
0.03364
0.03390
-0.06581
-0.04522
0.07965
0.08018
0.03465
0.03417
-0.06500
-0.04391
0.08021
0.07925
0.03296
0.03389
-0.06566
-0.04497
0.07953
0.08009
0.03437
0.03393
-0.06558
-0.04505
0.07965
0.08016
0.03463
0.03414
-0.06521
-0.04460
0.07951
0.07984
0.03414
0.03393
-0.06595
-0.04538
0.07949
0.08064
0.03490
0.03397
-0.06509
-0.04391
0.07934
0.08035
0.03414
0.03323
-0.06570
-0.04500
0.08009
0.07986
0.03416
0.03438
-0.06549
-0.04479
0.07993
0.07967
0.03391
0.03422
-0.06580
-0.04528
0.07998
0.07984
0.03424
0.03435
-0.06555
-0.04489
0.07974
0.07989
0.03422
0.03411
-0.06562
-0.04496
0.07988
0.07980
0.03417
0.03421
-0.06548
-0.04481
0.07979
0.07974
0.03398
0.03410
-0.06466
-0.04460
0.08019
0.07671
0.03217
0.03500
-0.06709
-0.04603
0.08005
0.08035
0.03469
0.03438
-0.06719
-0.04530
0.07533
0.08468
0.03631
0.02837
-0.06591
-0.04305
0.08454
0.07448
0.02685
0.03586
-0.06494
-0.04496
0.08055
0.07643
0.03220
0.03555
-0.06243
-0.03619
0.07807
0.08195
0.03568
0.02690
-0.05860
-0.04051
0.07930
0.07480
0.03316
0.03628
-0.05611
-0.03925
0.07494
0.07674
0.03458
0.03305
-0.06505
-0.03565
0.07415
0.09477
0.04053
0.01615
-0.01260
-0.16758
0.10881
0.16751
0.02552
0.02596
-0.05239
-0.03016
0.07505
0.07245
0.02097
0.03051
-0.06378
-0.03920
0.08761
0.07978
0.03463
0.04194
-0.01501
-0.02047
0.16204
0.13115
0.02578
0.02584
-0.05942
-0.04202
0.07398
0.07786
0.03694
0.03309
-0.05818
-0.03992
0.07896
0.07480
0.03278
0.03603
-0.06563
-0.04500
0.07986
0.07982
0.03414
0.03419
-0.06558
-0.04493
0.07986
0.07977
0.03408
0.03419
-0.06559
-0.04493
0.07980
0.07987
0.03420
0.03416
-0.06557
-0.04490
0.07986
0.07980
0.03413
0.03419
-0.06555
-0.04489
0.07983
0.07979
0.03411
0.03417
-0.06557
-0.04492
0.07972
0.07987
0.03419
0.03402
-0.06561
-0.04495
0.07987
0.07980
0.03416
0.03420
-0.06557
-0.04490
0.07975
0.07986
0.03418
0.03411
-0.06570
-0.04509
0.07989
0.07982
0.03416
0.03423
-0.06553
-0.04486
0.07977
0.07980
0.03412
0.03407
-0.06622
-0.04550
0.07842
0.08145
0.03547
0.03246
-0.06499
-0.04441
0.07877
0.07978
0.03402
0.03342
-0.06583
-0.04497
0.08122
0.07867
0.03266
0.03483
-0.06610
-0.04533
0.07987
0.08007
0.03442
0.03424
-0.06531
-0.04481
0.07904
0.08002
0.03436
0.03365
-0.06540
-0.04475
0.07977
0.07961
0.03388
0.03412
-0.06619
-0.04576
0.07980
0.08033
0.03472
0.03429
-0.06502
-0.04387
0.07996
0.07945
0.03313
0.03380
-0.06553
-0.04486
0.07966
0.07987
0.03418
0.03402
-0.06580
-0.04515
0.07982
0.07992
0.03434
0.03427
0.07299
0.07328
0.02078
0.01789
0.01554
0.01718
0.07266
0.07307
0.02153
0.01724
0.01503
0.01792
0.07198
0.07181
0.02094
0.01965
0.01609
0.01789
0.07245
0.07224
0.02076
0.01941
0.01573
0.01776
0.06807
0.06662
0.02430
0.01902
0.01530
0.02093
0.07087
0.07125
0.02136
0.01992
0.01685
0.01804
0.07426
0.07352
0.02015
0.01863
0.01499
0.01704
0.09888
0.08933
0.01174
0.00607
-0.00654
0.01699
0.06823
0.06914
0.02102
0.02200
0.02098
0.01731
0.06198
0.05334
0.04531
0.02555
0.03936
0.02576
0.06698
0.06703
0.01968
0.02414
0.02023
0.01682
0.11214
-0.05279
0.06775
0.02530
0.08699
0.02555
0.06913
0.06881
0.01708
0.02468
0.02216
0.01432
0.06994
0.07059
0.02145
0.02044
0.01750
0.01801
0.07503
0.07487
0.01834
0.01873
0.01570
0.01473
0.07180
0.07189
0.02028
0.02060
0.01744
0.01712
0.07177
0.07182
0.02029
0.02066
0.01747
0.01717
0.07209
0.07208
0.02043
0.02033
0.01718
0.01728
0.07211
0.07212
0.02042
0.02036
0.01715
0.01721
0.07203
0.07204
0.02051
0.02041
0.01721
0.01732
0.07174
0.07160
0.02057
0.02046
0.01728
0.01744
0.07193
0.07196
0.02050
0.02049
0.01730
0.01732
0.07211
0.07214
0.02028
0.02047
0.01729
0.01703
0.07203
0.07204
0.01995
0.02071
0.01749
0.01693
0.07230
0.07212
0.02114
0.01987
0.01660
0.01815
0.07221
0.07218
0.02052
0.02027
0.01713
0.01735
0.07218
0.07194
0.02119
0.02007
0.01667
0.01835
0.07222
0.07219
0.02050
0.02041
0.01717
0.01734
0.07018
0.07029
0.02233
0.02136
0.01827
0.01875
0.07194
0.07197
0.02051
0.02052
0.01734
0.01733
0.07151
0.07129
0.02048
0.02104
0.01771
0.01737
0.07208
0.07207
0.02032
0.02065
0.01744
0.01719
0.07220
0.07228
0.02007
0.02063
0.01756
0.01669
0.07190
0.07196
0.02052
0.02056
0.01741
0.01733
0.07354
0.07311
0.02055
0.01909
0.01553
0.01793
0.07259
0.07233
0.01914
0.02089
0.01753
0.01639
0.07044
0.07045
0.02295
0.01839
0.01563
0.01929
0.06904
0.06777
0.02127
0.02379
0.01893
0.01972
0.07212
0.07210
0.02049
0.02044
0.01723
0.01732
0.07201
0.07194
0.02069
0.02018
0.01683
0.01757
0.07247
0.07269
0.02054
0.01928
0.01655
0.01716
0.07207
0.07207
0.02044
0.02050
0.01732
0.01726
0.07201
0.07200
0.02050
0.02049
0.01732
0.01732
0.07203
0.07200
0.02051
0.02042
0.01724
0.01733
0.07207
0.07207
0.02048
0.02044
0.01726
0.01731
0.07203
0.07201
0.02051
0.02043
0.01725
0.01732
0.07174
0.07156
0.02015
0.02094
0.01766
0.01700
0.07193
0.07195
0.02046
0.02050
0.01732
0.01731
0.09130
0.09031
0.01335
0.01137
0.00935
0.00849
0.09677
0.11055
0.02613
0.02570
0.09451
0.02558
0.07041
0.07035
0.01775
0.02393
0.02059
0.01489
0.11792
-0.11477
0.06823
0.02562
0.06608
0.02520
0.06741
0.06869
0.02450
0.02159
0.02064
0.01928
0.07365
0.07308
0.02086
0.01874
0.01495
0.01821
0.07112
0.07062
0.02058
0.02167
0.01819
0.01773
0.07119
0.07154
0.02058
0.02084
0.01791
0.01701
0.07211
0.07228
0.01992
0.02076
0.01770
0.01679
0.07202
0.07200
0.02056
0.02034
0.01712
0.01739
0.07219
0.07220
0.02052
0.02013
0.01705
0.01728
0.07194
0.07191
0.02036
0.02059
0.01740
0.01723
0.07215
0.07151
-0.00454
-0.00383
0.06526
-0.01003
-0.00557
0.07699
-0.00211
-0.01119
0.06520
-0.01126
-0.00140
-0.01037
-0.00618
0.07100
0.07118
-0.00551
-0.00565
0.07081
-0.00623
-0.00591
0.07117
-0.00561
-0.00583
0.07071
-0.00594
-0.00566
-0.00630
-0.00575
0.07101
0.07142
-0.00513
-0.00554
0.07070
-0.00633
-0.00590
0.07064
0.07144
-0.00524
-0.00583
-0.00659
-0.00587
-0.00544
-0.00598
0.07074
0.07140
-0.00532
-0.00585
0.07090
0.07107
-0.00587
-0.00594
0.07155
-0.00518
-0.00565
-0.00561
-0.00627
-0.00570
-0.00544
0.07116
0.07096
-0.00592
-0.00569
0.07106
-0.00567
-0.00561
0.07114
-0.00567
-0.00579
0.07101
-0.00573
-0.00566
-0.00589
-0.00578
0.07114
0.06827
-0.00780
-0.00603
0.07157
-0.00497
-0.00528
0.07409
-0.00377
-0.00831
0.06782
-0.00953
-0.00403
-0.00783
-0.00536
0.07092
0.09091
-0.00052
-0.01095
0.05905
-0.00695
-0.00045
0.06535
-0.00378
-0.00773
0.10527
0.00370
-0.02171
-0.02648
-0.04313
0.11078
0.05572
-0.03919
-0.00570
0.09186
0.07004
-0.01154
0.00124
-0.04004
-0.03002
0.05969
-0.00061
-0.00732
-0.00753
-0.00040
0.07109
0.07107
-0.00574
-0.00571
0.07104
-0.00579
-0.00573
0.07110
-0.00571
-0.00574
0.07104
-0.00575
-0.00571
-0.00577
-0.00573
0.07099
0.07111
-0.00572
-0.00584
0.07111
0.07102
-0.00574
-0.00569
-0.00571
-0.00578
0.07105
-0.00573
-0.00568
-0.00577
-0.00582
0.07018
0.07211
-0.00479
-0.00657
0.07107
-0.00604
-0.00645
0.07018
-0.00671
-0.00514
0.07130
-0.00535
-0.00556
-0.00569
-0.00635
0.07115
0.07083
-0.00609
-0.00573
0.07119
-0.00542
-0.00541
0.07086
-0.00637
-0.00595
0.07123
-0.00564
-0.00592
-0.00543
-0.00569
0.05667
0.05724
0.07831
0.07781
0.05686
0.05656
0.07731
0.07766
-0.01619
-0.01823
0.04972
-0.01641
-0.01852
0.05033
-0.01710
0.05034
-0.01725
0.05009
0.05335
0.05898
0.07892
0.07239
0.05770
0.05504
0.07637
0.07880
-0.01512
-0.01590
0.04775
-0.01606
-0.01697
0.05262
-0.01673
0.05080
-0.01756
0.04776
0.05411
0.03548
0.06472
0.08909
0.04965
0.06011
0.07250
0.06306
-0.01094
-0.01061
0.04755
-0.00069
-0.02248
0.01050
-0.01102
0.04568
-0.01798
0.04263
0.03785
0.05295
0.08605
0.06533
0.07124
0.04539
0.05407
0.07222
0.00957
-0.01569
0.01484
-0.01305
-0.01046
0.05003
-0.03442
0.01518
-0.00870
0.04280
0.05236
0.05888
0.07864
0.07140
0.05786
0.05345
0.07512
0.07939
-0.01431
-0.01501
0.04691
-0.01500
-0.01596
0.05258
-0.01608
0.05076
-0.01699
0.04579
0.05576
0.05607
0.07704
0.07689
0.05591
0.05600
0.07681
0.07690
-0.01411
-0.01560
0.04881
-0.01542
0.04927
-0.01436
-0.01579
0.04942
-0.01572
0.04943
0.05640
0.05626
0.07713
0.07733
0.05627
0.05636
0.07731
0.07724
-0.01472
-0.01614
0.04975
-0.01469
-0.01611
0.04962
-0.01609
0.04956
-0.01606
0.04969
0.05615
0.05638
0.07732
0.07701
0.05636
0.05615
0.07714
0.07731
-0.01460
-0.01601
0.04952
-0.01460
-0.01600
0.04974
-0.01598
0.04968
-0.01599
0.04941
0.05547
0.05632
0.07735
0.07670
0.05630
0.05561
0.07620
0.07723
-0.01414
-0.01569
0.04837
-0.01536
0.04977
-0.01436
-0.01582
0.04964
-0.01567
0.04916
0.05670
0.05645
0.07733
0.07756
0.05674
0.05642
0.07728
0.07756
-0.01501
-0.01643
0.05009
-0.01479
-0.01622
0.04977
-0.01630
0.05020
-0.01612
0.04976
0.05477
0.05569
0.07761
0.07663
0.05596
0.05666
0.07583
0.07450
-0.01310
-0.01517
0.04717
-0.01348
0.05125
-0.01302
-0.01488
0.04858
-0.01397
0.05032
0.05646
0.05613
0.07703
0.07744
0.05620
0.05638
0.07732
0.07717
-0.01466
-0.01608
0.04978
-0.01603
0.04949
-0.01458
-0.01598
0.04950
-0.01597
0.04973
0.05638
0.05608
0.07690
0.07730
0.05601
0.05639
0.07737
0.07707
-0.01432
-0.01561
0.04976
-0.01442
-0.01577
0.04950
-0.01580
0.04917
-0.01586
0.04970
0.05720
0.05563
0.07663
0.07838
0.05469
0.05791
0.07803
0.07464
-0.01464
-0.01613
0.05029
-0.01556
-0.01697
0.04894
-0.01573
0.04857
-0.01694
0.05137
0.05591
0.05492
0.07662
0.07768
0.05592
0.05593
0.07473
0.07488
-0.01267
-0.01478
0.04874
-0.01315
0.04986
-0.01250
-0.01494
0.04750
-0.01228
0.05065
0.05631
0.05647
0.07744
0.07728
0.05639
0.05632
0.07723
0.07732
-0.01460
-0.01601
0.04959
-0.01598
0.04974
-0.01465
-0.01608
0.04977
-0.01602
0.04968
0.05643
0.05658
0.07748
0.07729
0.05672
0.05644
0.07746
0.07770
-0.01529
-0.01646
0.04987
-0.01700
0.04997
-0.01521
-0.01640
0.04997
-0.01692
0.04965
0.05638
0.05628
0.07719
0.07731
0.05629
0.05636
0.07730
0.07723
-0.01457
-0.01595
0.04973
-0.01597
0.04960
-0.01457
-0.01596
0.04962
-0.01597
0.04968
0.05634
0.05635
0.07730
0.07726
0.05633
0.05635
0.07730
0.07725
-0.01462
-0.01602
0.04968
-0.01463
-0.01603
0.04967
-0.01602
0.04967
-0.01602
0.04967
0.05613
0.05624
0.07719
0.07716
0.05613
0.05624
0.07712
0.07709
-0.01438
-0.01581
0.04933
-0.01452
-0.01592
0.04957
-0.01572
0.04946
-0.01591
0.04962
0.05180
0.03992
0.06929
0.08444
0.05418
0.05803
0.07009
0.06882
-0.01272
-0.01178
0.04740
-0.01210
0.04884
0.00735
-0.01894
0.01090
-0.01837
0.01928
0.04045
0.05084
0.08373
0.06867
0.06204
0.05721
0.07869
0.07254
0.00986
-0.01540
0.01650
-0.01089
-0.00985
0.04648
-0.02988
0.02093
-0.01155
0.04956
0.05482
0.05829
0.07827
0.07455
0.05716
0.05593
0.07695
0.07826
-0.01506
-0.01611
0.04878
-0.01652
0.05028
-0.01611
-0.01742
0.05197
-0.01742
0.04915
-0.26084
-0.23360
0.25757
0.07588
0.03324
-0.07214
-0.02933
-0.08608
-0.05463
0.23035
-0.04980
-0.18532
-0.04361
-0.01573
0.32277
0.05838
0.05495
0.07365
0.07663
0.05423
0.05686
0.07891
0.07587
-0.01535
-0.01650
0.05303
-0.01691
0.04718
-0.01362
-0.01435
0.04912
-0.01551
0.04938
0.05579
0.05643
0.07533
0.07454
0.05481
0.05562
0.07735
0.07675
-0.01227
-0.01207
0.05089
-0.01470
0.04706
-0.01330
-0.01444
0.05005
-0.01511
0.04875
0.05627
0.05634
0.07727
0.07722
0.05634
0.05628
0.07719
0.07729
-0.01457
-0.01596
0.04958
-0.01597
0.04966
-0.01457
-0.01596
0.04968
-0.01597
0.04962
0.05633
0.05642
0.07735
0.07726
0.05650
0.05635
0.07729
0.07745
-0.01488
-0.01620
0.04965
-0.01638
0.04980
-0.01483
-0.01616
0.04977
-0.01631
0.04965
0.05627
0.05623
0.07720
0.07722
0.05630
0.05623
0.07715
0.07723
-0.01455
-0.01594
0.04959
-0.01595
0.04964
-0.01451
-0.01592
0.04953
-0.01590
0.04958
0.05658
0.05597
0.07670
0.07746
0.05628
0.05648
0.07741
0.07723
-0.01481
-0.01600
0.05003
-0.01632
0.04957
-0.01466
-0.01596
0.04941
-0.01612
0.04980
-0.02030
-0.01643
-0.02064
-0.01556
0.08682
0.08640
-0.01570
-0.01600
0.07773
-0.02321
-0.02175
0.09881
-0.01605
-0.01487
0.07718
-0.01794
-0.01688
-0.01804
-0.01700
0.08548
0.08583
-0.01703
-0.01735
0.08537
-0.01734
-0.01723
0.08566
-0.01721
-0.01708
0.08522
-0.01792
-0.01656
-0.01845
-0.01677
0.08496
0.08680
-0.01690
-0.01732
0.08530
-0.01753
-0.01644
-0.01742
-0.01720
0.08546
0.08583
-0.01731
-0.01647
-0.01723
-0.01724
0.08540
0.08583
-0.01670
-0.01735
-0.01692
-0.01733
0.08509
0.08564
-0.01797
-0.01677
0.08660
-0.01707
-0.01749
-0.01709
-0.01715
0.08577
0.08548
-0.01745
-0.01704
0.08557
-0.01716
-0.01722
0.08564
-0.01723
-0.01711
0.08556
-0.01661
-0.01864
-0.01654
-0.01662
0.08597
0.08121
-0.01858
-0.01694
0.08618
-0.02140
-0.01925
0.09456
-0.01542
-0.01690
0.08075
-0.01559
-0.01339
0.00916
-0.04458
0.08289
0.04016
-0.01501
-0.01329
0.08263
-0.01121
-0.01659
0.08172
0.01593
-0.09668
0.05743
0.03828
-0.11167
-0.01112
-0.01743
0.01248
0.08124
0.01095
-0.05722
-0.01692
-0.01115
0.05271
0.08236
-0.01461
-0.01621
0.08370
-0.01726
-0.01720
-0.01724
-0.01716
0.08565
0.08560
-0.01717
-0.01718
0.08554
-0.01721
-0.01717
0.08565
-0.01717
-0.01716
0.08557
-0.01717
-0.01717
-0.01718
-0.01734
0.08551
0.08566
-0.01722
-0.01718
-0.01722
-0.01714
0.08563
0.08556
-0.01731
-0.01712
0.08558
-0.01749
-0.01638
-0.01829
-0.01811
0.08405
0.08785
-0.01681
-0.01772
0.08560
-0.01702
-0.01692
0.08470
-0.01762
-0.01706
0.08579
-0.01687
-0.01767
-0.01710
-0.01716
0.08538
0.08546
-0.01824
-0.01652
0.08635
-0.01665
-0.01752
0.08557
-0.01710
-0.01735
0.08556
0.04927
0.04819
0.04714
0.04910
0.04877
0.04650
0.04567
0.05134
0.04526
0.11135
-0.02904
-0.04339
0.04332
0.04618
0.05222
0.04825
0.04820
0.04850
0.04843
0.04839
0.04830
0.04805
0.04851
0.04838
0.04906
0.04882
0.04726
0.04849
0.04850
0.04828
0.04766
0.04860
0.04877
0.04843
0.04830
0.04849
0.05027
0.04771
0.04556
0.04827
0.04882
0.04787
0.04842
0.04836
0.04842
0.04839
0.04839
0.04832
0.11667
-0.06317
-0.03388
0.04790
0.04485
0.05080
0.04765
0.04819
0.04885
0.04836
0.04852
0.04822
-0.07215
-0.11686
-0.24482
0.49561
-0.10372
0.25702
-0.12738
-0.15663
-0.22748
-0.20094
0.05044
-0.07651
-0.12975
-0.20389
-0.19929
0.10000
