# vtk DataFile Version 3.0
Point representing Sub_cellular elem model
ASCII

DATASET UNSTRUCTURED_GRID
POINTS 725 float
0.00611 1.72314 0.71359 
0.00751 1.73165 -1.43597 
1.74778 1.06547 -0.35648 
1.74713 -1.08744 -0.35818 
0.00658 -1.75270 -1.43869 
0.00642 -1.74429 0.71354 
1.07941 -0.01208 1.39726 
-1.06064 -0.01519 1.40209 
1.08558 -0.01020 -2.09799 
-1.06807 -0.00974 -2.10375 
-1.73375 1.06216 -0.36223 
-1.73304 -1.08602 -0.36284 
0.00541 2.04049 -0.36038 
1.03105 1.64768 0.27538 
0.64107 1.00889 1.30877 
-0.62026 1.00753 1.30100 
-1.01843 1.64272 0.27138 
1.03361 1.65063 -0.99184 
0.64349 1.01633 -2.01792 
-0.62577 1.01652 -2.02137 
-1.02022 1.64951 -0.99626 
2.05874 -0.01118 -0.35669 
1.66402 0.62161 0.66843 
1.66906 0.62404 -1.38226 
1.03313 -1.67222 -0.99455 
1.02978 -1.66831 0.27358 
1.66167 -0.64439 0.66780 
1.66889 -0.64531 -1.38344 
0.00550 -2.06228 -0.36294 
0.64287 -1.03678 -2.01967 
-0.62663 -1.03645 -2.02288 
-1.02071 -1.67105 -0.99827 
0.63484 -1.02949 1.31162 
-0.62236 -1.02917 1.31582 
-1.01658 -1.66674 0.27170 
-0.02207 0.53286 2.13758 
-1.64594 0.61497 0.66363 
-1.64358 -0.64587 0.66678 
0.00961 -0.00986 -2.41136 
-1.65402 0.62394 -1.38959 
-1.65440 -0.64452 -1.39034 
-2.04339 -0.01238 -0.36257 
0.00516 1.95623 0.21003 
0.52834 1.75610 0.53398 
0.33055 1.43005 1.05706 
-0.31383 1.42757 1.05490 
-0.51638 1.75264 0.53167 
0.00637 1.96113 -0.93136 
0.53095 1.76171 -1.25346 
0.33208 1.43818 -1.77693 
-0.31542 1.43819 -1.77862 
-0.51676 1.76135 -1.25595 
1.45342 1.40698 -0.03389 
1.45496 1.40808 -0.68035 
1.97778 0.56041 -0.35638 
1.77638 0.88317 0.16643 
1.77910 0.88457 -0.87961 
1.97737 -0.58265 -0.35729 
1.45451 -1.42983 -0.68262 
1.45227 -1.42854 -0.03580 
1.77494 -0.90537 0.16521 
1.77886 -0.90632 -0.88118 
0.53024 -1.78308 -1.25633 
0.00579 -1.98275 -0.93424 
0.33121 -1.45887 -1.77931 
-0.31644 -1.45866 -1.78084 
-0.51762 -1.78253 -1.25845 
0.52776 -1.77627 0.53265 
0.00586 -1.97768 0.20836 
0.32800 -1.45014 1.05835 
-0.31495 -1.45003 1.05874 
-0.51498 -1.77551 0.53188 
0.90511 0.51188 1.42384 
1.42208 0.31032 1.09150 
1.41993 -0.33424 1.09142 
0.90049 -0.53544 1.42514 
0.57438 -0.01145 1.67023 
-0.89074 0.51122 1.41515 
-0.88468 -0.53412 1.43670 
-0.55738 -0.00223 1.68088 
-1.40327 0.30410 1.08809 
-1.40058 -0.33761 1.09412 
0.90430 0.51341 -2.12808 
1.42739 0.31328 -1.80402 
1.42726 -0.33405 -1.80461 
0.90401 -0.53374 -2.12900 
0.58094 -0.01001 -2.32880 
-0.88631 0.51376 -2.13300 
-0.88679 -0.53335 -2.13374 
-0.56220 -0.00976 -2.33205 
-1.41103 0.31369 -1.81110 
-1.41130 -0.33346 -1.81153 
-1.43998 1.40238 -0.03883 
-1.44173 1.40587 -0.68580 
-1.76076 0.87790 0.16116 
-1.76497 0.88319 -0.88626 
-1.96284 0.55776 -0.36242 
-1.44158 -1.42826 -0.68713 
-1.43849 -1.42675 -0.03904 
-1.75905 -0.90483 0.16185 
-1.76504 -0.90522 -0.88710 
-1.96238 -0.58224 -0.36263 
0.56152 1.93862 -0.05406 
-0.55070 1.93632 -0.05627 
0.56261 1.94059 -0.66444 
-0.55066 1.93946 -0.66680 
0.90482 1.37943 0.84659 
1.05672 1.75139 -0.35803 
1.39888 1.19294 0.54206 
0.01215 1.03552 1.40774 
1.21038 0.88670 1.03701 
0.30773 0.53456 1.64343 
-0.88902 1.37378 0.84157 
-0.29917 0.53742 1.62860 
-1.19224 0.88101 1.03015 
-1.04468 1.74855 -0.36203 
-1.38331 1.18632 0.53670 
0.90876 1.38483 -1.56316 
1.40283 1.19586 -1.25680 
0.00916 1.04092 -2.12118 
1.21477 0.89027 -1.75103 
0.31517 0.54646 -2.30888 
-0.89317 1.38469 -1.56760 
-0.29611 0.54660 -2.31064 
-1.19844 0.89044 -1.75710 
-1.38832 1.19525 -1.26295 
1.95546 0.29391 0.19916 
1.95879 0.29485 -0.91255 
1.95482 -0.31677 0.19875 
1.95870 -0.31662 -0.91311 
1.76464 -0.01183 0.69250 
1.77076 -0.01061 -1.40699 
1.05618 -1.77292 -0.36053 
1.40248 -1.21727 -1.25892 
0.56223 -1.96226 -0.66732 
0.90815 -1.40590 -1.56555 
1.39619 -1.21409 0.54091 
0.56137 -1.95981 -0.05644 
0.90170 -1.39919 0.84622 
1.20579 -0.90829 1.03709 
1.21439 -0.91112 -1.75264 
-0.55083 -1.96138 -0.66918 
-0.54980 -1.95874 -0.05788 
0.00837 -1.06103 -2.12286 
0.31476 -0.56644 -2.30980 
-0.89411 -1.40524 -1.56952 
-0.29659 -0.56631 -2.31150 
-1.19916 -0.91047 -1.75830 
-1.04408 -1.77123 -0.36350 
-1.38890 -1.21622 -1.26439 
0.00518 -1.05709 1.41564 
0.30323 -0.55444 1.65468 
-0.88736 -1.39863 0.84644 
-0.29958 -0.55300 1.66190 
-1.18893 -0.90861 1.04033 
-1.38049 -1.21322 0.53978 
-1.74567 -0.01655 0.68968 
-1.93847 0.28988 0.19438 
-1.93778 -0.31850 0.19469 
-1.75575 -0.01024 -1.41462 
-1.94422 0.29427 -0.91969 
-1.94426 -0.31627 -0.91997 
0.00547 1.85605 0.47295 
0.26631 1.75641 0.63440 
0.16775 1.59357 0.89475 
-0.15373 1.59223 0.89392 
-0.25439 1.75449 0.63324 
0.00694 1.86303 -1.19484 
0.26846 1.76352 -1.35540 
0.16934 1.60226 -1.61641 
-0.15345 1.60223 -1.61723 
-0.25383 1.76338 -1.35668 
1.61791 1.24622 -0.19557 
1.61872 1.24670 -0.51788 
1.87933 0.82414 -0.35637 
1.77894 0.98506 -0.09572 
1.78030 0.98578 -0.61724 
1.87878 -0.84624 -0.35771 
1.61819 -1.26855 -0.51987 
1.61700 -1.26807 -0.19743 
1.77796 -1.00714 -0.09721 
1.77992 -1.00768 -0.61890 
0.26762 -1.78474 -1.35824 
0.00614 -1.88439 -1.19769 
0.16841 -1.62313 -1.61900 
-0.15445 -1.62300 -1.61973 
-0.25475 -1.78449 -1.35933 
0.26624 -1.77685 0.63365 
0.00617 -1.87730 0.47199 
0.16690 -1.61408 0.89536 
-0.15386 -1.61396 0.89533 
-0.25348 -1.77650 0.63334 
1.00795 0.24790 1.42631 
1.26223 0.14758 1.25910 
1.26117 -0.17176 1.25900 
1.00627 -0.27187 1.42631 
0.83926 -0.01183 1.54273 
-0.99482 0.24505 1.42272 
-0.98640 -0.27297 1.43760 
-0.82184 -0.01201 1.55059 
-1.24455 0.14182 1.25799 
-1.24122 -0.17580 1.26393 
1.00566 0.25084 -2.12977 
1.26642 0.15105 -1.96825 
1.26636 -0.17162 -1.96853 
1.00553 -0.27118 -2.13023 
0.84444 -0.01010 -2.22985 
-0.98783 0.25125 -2.13520 
-0.98807 -0.27075 -2.13556 
-0.82626 -0.00974 -2.23448 
-1.24944 0.15152 -1.97479 
-1.24958 -0.17109 -1.97501 
-1.60412 1.24222 -0.20091 
-1.60520 1.24392 -0.52353 
-1.76430 0.98077 -0.10126 
-1.76633 0.98347 -0.62340 
-1.86482 0.82103 -0.36234 
-1.60473 -1.26699 -0.52451 
-1.60303 -1.26644 -0.20143 
-1.76310 -1.00597 -0.10134 
-1.76606 -1.00641 -0.62417 
-1.86421 -0.84521 -0.36269 
0.00516 2.01860 -0.07057 
0.00584 2.02112 -0.65034 
0.28998 2.01456 -0.21156 
-0.27935 2.01353 -0.21273 
0.29045 2.01569 -0.50803 
-0.27915 2.01496 -0.50923 
0.78598 1.71967 0.41316 
1.25589 1.54236 0.12475 
0.81033 1.81528 0.11090 
0.98580 1.52913 0.57153 
1.05077 1.72449 -0.03664 
1.22596 1.43857 0.42390 
0.49113 1.23436 1.19564 
0.78168 0.76893 1.38378 
0.78775 1.20521 1.09402 
0.33474 1.03107 1.38269 
0.93660 0.96724 1.18705 
0.47790 0.78609 1.49012 
-0.47156 1.23164 1.19124 
-0.76387 0.77016 1.37284 
-0.31162 1.03088 1.37775 
-0.76947 1.20089 1.08794 
-0.45713 0.78868 1.47957 
-0.91797 0.96399 1.17880 
-0.77375 1.71520 0.40990 
-1.24285 1.53740 0.12022 
-0.79885 1.81162 0.10777 
-0.97192 1.52345 0.56718 
-1.03874 1.72058 -0.04054 
-1.21190 1.43260 0.41908 
0.78871 1.72386 -1.13110 
1.25802 1.54426 -0.84002 
0.81214 1.81785 -0.82838 
1.05212 1.72599 -0.67954 
0.98929 1.53341 -1.28829 
1.22927 1.44160 -1.13946 
0.49181 1.24096 -1.91228 
0.78242 0.77127 -2.09059 
0.79136 1.21156 -1.80881 
0.33102 1.03557 -2.09432 
0.93997 0.97136 -1.90001 
0.47963 0.79540 -2.18548 
-0.47452 1.24105 -1.91487 
-0.76446 0.77155 -2.09483 
-0.31285 1.03568 -2.09611 
-0.77464 1.21164 -1.81289 
-0.46111 0.79559 -2.18813 
-0.92290 0.97157 -1.90492 
-0.77496 1.72317 -1.13465 
-1.24483 1.54263 -0.84507 
-0.79946 1.81663 -0.83182 
-1.03958 1.72411 -0.68374 
-0.97484 1.53287 -1.29283 
-1.21525 1.44072 -1.14479 
2.03839 0.27912 -0.35649 
2.03817 -0.30145 -0.35696 
2.03208 0.13705 -0.07218 
2.03388 0.13744 -0.64110 
2.03188 -0.15970 -0.07240 
2.03382 -0.15951 -0.64135 
1.73779 0.76083 0.42380 
1.55759 0.46987 0.89307 
1.54711 0.91807 0.62338 
1.45528 0.76929 0.86346 
1.83169 0.45810 0.44775 
1.73925 0.30947 0.68741 
1.74181 0.76281 -1.13732 
1.56314 0.47262 -1.60681 
1.55162 0.92079 -1.33750 
1.46026 0.77237 -1.57755 
1.83613 0.45974 -1.16137 
1.74478 0.31136 -1.40148 
1.25759 -1.56593 -0.84253 
0.78812 -1.74535 -1.13393 
1.05166 -1.74765 -0.68221 
1.22883 -1.46311 -1.14193 
0.81166 -1.83950 -0.83123 
0.98874 -1.55477 -1.29090 
1.25458 -1.56348 0.12286 
0.78498 -1.73995 0.41150 
1.04998 -1.74565 -0.03884 
1.22389 -1.45927 0.42246 
0.80974 -1.83614 0.10876 
0.98375 -1.54923 0.57032 
1.73585 -0.78324 0.42286 
1.55510 -0.49319 0.89276 
1.83033 -0.48104 0.44718 
1.73792 -0.33288 0.68709 
1.54429 -0.93999 0.62248 
1.45179 -0.79159 0.86300 
1.74162 -0.78433 -1.13873 
1.56299 -0.49363 -1.60770 
1.83602 -0.48124 -1.16225 
1.74469 -0.33260 -1.40208 
1.55136 -0.94211 -1.33919 
1.45999 -0.79343 -1.57898 
0.00556 -2.04289 -0.65313 
0.00561 -2.04027 -0.07276 
0.29025 -2.03739 -0.51081 
0.29004 -2.03610 -0.21408 
-0.27915 -2.03689 -0.51173 
-0.27889 -2.03554 -0.21490 
0.49105 -1.26152 -1.91438 
0.78196 -0.79164 -2.09194 
0.79072 -1.23230 -1.81091 
0.93947 -0.99200 -1.90173 
0.33031 -1.05583 -2.09605 
0.47909 -0.81559 -2.18683 
-0.47550 -1.26124 -1.91675 
-0.76515 -0.79128 -2.09596 
-0.31370 -1.05567 -2.09772 
-0.77559 -1.23183 -1.81464 
-0.46181 -0.81537 -2.18934 
-0.92372 -0.99151 -1.90630 
-0.77567 -1.74449 -1.13694 
-1.24502 -1.56451 -0.84675 
-0.79980 -1.83840 -0.83403 
-0.97564 -1.55388 -1.29484 
-1.03959 -1.74620 -0.68558 
-1.21583 -1.46198 -1.14654 
0.48688 -1.25469 1.19741 
0.77539 -0.79130 1.38609 
0.78326 -1.22508 1.09493 
0.93111 -0.98825 1.18811 
0.32882 -1.05285 1.38686 
0.47048 -0.80757 1.49602 
-0.47406 -1.25459 1.19907 
-0.76143 -0.78935 1.39525 
-0.31795 -1.05261 1.38941 
-0.76924 -1.22491 1.09691 
-0.46125 -0.80643 1.50241 
-0.91595 -0.98780 1.19293 
-0.77203 -1.73875 0.41020 
-1.24108 -1.56170 0.12035 
-0.79749 -1.83470 0.10694 
-1.03748 -1.74390 -0.04134 
-0.96982 -1.54809 0.56929 
-1.20952 -1.45786 0.42086 
0.13289 -0.52823 1.89946 
-0.10846 -0.54718 2.19085 
0.47194 0.13599 1.93783 
0.39195 -0.36855 2.59473 
-0.34168 -0.42997 1.94021 
-0.49557 -0.22568 2.06329 
-1.53867 0.46325 0.88870 
-1.72095 0.75470 0.41876 
-1.43717 0.76253 0.85780 
-1.53016 0.91124 0.61799 
-1.72044 0.30352 0.68360 
-1.81399 0.45255 0.44321 
[...]
CELL_DATA 2167
SCALARS Strain double 
LOOKUP_TABLE default 
-0.08729
-0.09027
-0.08631
-0.08952
-0.08895
-0.08830
-0.08712
-0.08782
-0.08769
-0.08720
-0.08818
-0.08744
-0.08744
-0.08816
-0.08831
-0.08769
-0.08733
-0.08834
-0.08771
-0.08828
-0.08687
-0.08821
-0.08780
-0.08759
-0.08714
-0.09106
-0.08449
-0.08613
-0.08640
-0.09066
-0.09966
-0.07274
-0.07485
-0.09877
-0.06781
-0.10614
-0.10162
-0.06633
-0.06542
-0.07577
-0.08752
-0.08751
-0.08776
-0.08737
-0.08754
-0.08747
-0.08752
-0.08739
-0.08753
-0.08739
-0.08924
-0.08726
-0.08676
-0.08796
-0.08881
-0.08863
-0.08768
-0.08659
-0.08639
-0.08959
-0.03506
-0.03517
0.06966
0.06873
0.06893
0.06957
-0.03647
-0.03585
0.06995
0.06970
0.06885
0.06953
-0.02574
-0.04360
0.08181
0.04879
0.07011
0.09689
-0.03555
-0.04852
0.05874
0.07604
0.08293
0.07818
-0.03600
-0.03599
0.06816
0.07010
0.06950
0.06757
-0.03357
-0.03362
0.06933
0.06839
0.06855
0.06947
-0.03417
-0.03412
0.06916
0.06987
0.06978
0.06933
-0.03413
-0.03409
0.07000
0.06916
0.06928
0.07001
-0.03357
-0.03357
0.06917
0.06867
0.06870
0.06909
-0.03382
-0.03388
0.06878
0.06860
0.06863
0.06890
-0.03395
-0.03310
0.06854
0.06769
0.06836
0.06785
-0.03466
-0.03450
0.06993
0.06934
0.06913
0.07003
-0.03325
-0.03317
0.06858
0.06939
0.06917
0.06855
-0.03637
-0.03729
0.07069
0.06831
0.06939
0.07249
-0.03332
-0.03306
0.06965
0.06667
0.06665
0.06975
-0.03491
-0.03480
0.06953
0.07008
0.06998
0.06974
-0.03441
-0.03383
0.06847
0.06970
0.06972
0.06817
-0.03407
-0.03399
0.06898
0.07008
0.07014
0.06911
-0.03413
-0.03411
0.07013
0.06930
0.06940
0.07004
-0.03395
-0.03420
0.06957
0.06923
0.06953
0.06949
-0.02834
-0.04908
0.08721
0.07444
0.04914
0.10248
-0.02389
-0.04255
0.04268
0.09012
0.10306
0.06557
-0.03678
-0.03581
0.06737
0.07265
0.07492
0.06607
-0.11237
-0.04185
0.06771
0.02112
0.16456
-0.03100
-0.03142
0.06584
0.06686
0.06529
0.06660
-0.02964
-0.03049
0.07277
0.06099
0.06057
0.07382
-0.03389
-0.03386
0.06957
0.06942
0.06938
0.06957
-0.03427
-0.03433
0.06995
0.06919
0.06927
0.06998
-0.03378
-0.03362
0.06949
0.06934
0.06934
0.06925
-0.03646
-0.03664
0.06879
0.07179
0.07107
0.06899
-0.06588
-0.04564
0.07955
0.07767
0.03245
0.03359
-0.06835
-0.04752
0.07990
0.07973
0.03359
0.03464
-0.06340
-0.04183
0.08015
0.07457
0.02901
0.03358
-0.06885
-0.05014
0.07606
0.08263
0.03827
0.03248
-0.06709
-0.04656
0.07729
0.08102
0.03421
0.03117
-0.06656
-0.04600
0.07979
0.08012
0.03457
0.03418
-0.06508
-0.04440
0.07975
0.07903
0.03316
0.03404
-0.06580
-0.04507
0.07928
0.08041
0.03466
0.03387
-0.06570
-0.04500
0.08044
0.07919
0.03378
0.03475
-0.06516
-0.04444
0.07994
0.07896
0.03317
0.03409
-0.06659
-0.04630
0.07885
0.08002
0.03452
0.03357
-0.06531
-0.04452
0.07870
0.07975
0.03375
0.03314
-0.06539
-0.04466
0.07900
0.07913
0.03333
0.03339
-0.06617
-0.04526
0.07971
0.07884
0.03276
0.03370
-0.06635
-0.04561
0.08005
0.07940
0.03407
0.03461
-0.06564
-0.04484
0.07899
0.07954
0.03370
0.03324
-0.06512
-0.04424
0.07907
0.07956
0.03351
0.03320
-0.06678
-0.04659
0.07970
0.07933
0.03421
0.03495
-0.06549
-0.04448
0.07904
0.07885
0.03297
0.03314
-0.06645
-0.04580
0.07979
0.07992
0.03456
0.03445
-0.06474
-0.04401
0.07971
0.07904
0.03326
0.03405
-0.06634
-0.04557
0.07968
0.08041
0.03487
0.03397
-0.06576
-0.04500
0.07924
0.08070
0.03499
0.03380
-0.06563
-0.04497
0.08065
0.07929
0.03386
0.03485
-0.06519
-0.04462
0.08022
0.07914
0.03354
0.03435
-0.06923
-0.04839
0.07908
0.08361
0.03624
0.03353
-0.06342
-0.04382
0.07891
0.07722
0.03166
0.03307
-0.06450
-0.04476
0.08535
0.07339
0.02931
0.04059
-0.06373
-0.04233
0.07257
0.08618
0.03943
0.02752
-0.06877
-0.04791
0.07744
0.08494
0.03734
0.03234
-0.05937
-0.04402
0.08020
0.07772
0.03748
0.03976
-0.06021
-0.04236
0.07754
0.07581
0.03314
0.03366
-0.06276
-0.04347
0.07575
0.08118
0.03624
0.03167
-0.05707
-0.04561
0.08495
0.07040
0.03515
0.04413
-0.02400
-0.02883
0.13957
0.13947
0.02560
0.02599
-0.05081
-0.03242
0.06470
0.07104
0.02171
0.02402
-0.06950
-0.04900
0.09031
0.08273
0.03483
0.04586
-0.02065
0.15447
0.14468
0.02563
0.02563
-0.05866
-0.04108
0.07148
0.07432
0.03453
0.03044
-0.05854
-0.03952
0.08447
0.06773
0.02445
0.04151
-0.06555
-0.04491
0.07979
0.07982
0.03400
0.03424
-0.06567
-0.04517
0.07963
0.08015
0.03441
0.03381
-0.06597
-0.04548
0.08018
0.07993
0.03416
0.03452
-0.06539
-0.04476
0.08002
0.07952
0.03372
0.03441
-0.06549
-0.04476
0.07990
0.07964
0.03404
0.03424
-0.06552
-0.04489
0.07975
0.08012
0.03445
0.03402
-0.06556
-0.04492
0.07988
0.08007
0.03449
0.03418
-0.06537
-0.04469
0.07979
0.07990
0.03421
0.03410
-0.06563
-0.04504
0.08009
0.07985
0.03417
0.03443
-0.06541
-0.04470
0.07992
0.07986
0.03419
0.03411
-0.06766
-0.04703
0.07987
0.07917
0.03387
0.03458
-0.06516
-0.04443
0.07944
0.07864
0.03299
0.03361
-0.06413
-0.04280
0.07831
0.07770
0.03127
0.03146
-0.06595
-0.04522
0.07872
0.08054
0.03472
0.03323
-0.06732
-0.04702
0.07858
0.08102
0.03600
0.03352
-0.06640
-0.04537
0.08095
0.07920
0.03369
0.03467
-0.06600
-0.04588
0.08198
0.07630
0.03207
0.03756
-0.06378
-0.04221
0.07492
0.08201
0.03534
0.02874
-0.06463
-0.04424
0.07901
0.07927
0.03377
0.03324
-0.06809
-0.04754
0.08195
0.07946
0.03417
0.03574
0.07226
0.07238
0.01910
0.01954
0.01617
0.01616
0.07105
0.07087
0.01975
0.01999
0.01650
0.01641
0.07161
0.07172
0.02093
0.01934
0.01611
0.01779
0.07195
0.07181
0.02047
0.01944
0.01632
0.01726
0.07389
0.07726
0.02148
0.01458
0.01454
0.01567
0.07096
0.07084
0.02093
0.01982
0.01638
0.01781
0.07171
0.07141
0.02036
0.01863
0.01507
0.01784
0.07435
0.07964
0.01811
0.02523
0.01962
0.01243
0.07046
0.07006
0.02292
0.01965
0.01607
0.01870
0.12946
0.01139
0.08099
0.02550
0.07277
0.02532
0.07523
0.07357
0.01789
0.01708
0.01132
0.01654
0.10261
0.07096
0.07632
0.02520
0.07809
0.02549
0.07175
0.06930
0.01593
0.01997
0.01449
0.01604
0.07159
0.07131
0.02029
0.01936
0.01626
0.01721
0.07001
0.06990
0.02103
0.01758
0.01512
0.01748
0.07126
0.07147
0.02043
0.02090
0.01764
0.01734
0.07214
0.07231
0.01961
0.02058
0.01754
0.01661
0.07245
0.07249
0.02031
0.02022
0.01713
0.01722
0.07216
0.07202
0.02015
0.02068
0.01743
0.01679
0.07196
0.07203
0.02065
0.02037
0.01718
0.01753
0.07151
0.07135
0.02107
0.02035
0.01718
0.01790
0.07188
0.07192
0.02076
0.02050
0.01729
0.01757
0.07251
0.07248
0.02024
0.02043
0.01721
0.01697
0.07157
0.07161
0.01996
0.02104
0.01789
0.01687
0.07119
0.07107
0.01969
0.01992
0.01666
0.01676
0.07122
0.07142
0.01981
0.02103
0.01791
0.01678
0.07135
0.07173
0.01993
0.01943
0.01649
0.01663
0.07159
0.07181
0.01956
0.02101
0.01790
0.01647
0.07019
0.06975
0.01951
0.02125
0.01726
0.01646
0.07260
0.07261
0.01996
0.02032
0.01696
0.01661
0.07138
0.07205
0.01945
0.02089
0.01796
0.01584
0.07212
0.07233
0.01952
0.02097
0.01794
0.01644
0.07147
0.07125
0.01962
0.02122
0.01804
0.01671
0.07117
0.07133
0.02047
0.02127
0.01803
0.01742
0.06982
0.06922
0.02228
0.01919
0.01566
0.02015
0.07211
0.07217
0.02131
0.01831
0.01547
0.01726
0.07768
0.08196
0.01985
0.01430
0.01493
0.01250
0.07297
0.07402
0.01650
0.02379
0.02087
0.01231
0.07239
0.07250
0.02079
0.01989
0.01657
0.01753
0.07222
0.07215
0.02011
0.02007
0.01733
0.01671
0.07039
0.07018
0.01952
0.02223
0.01803
0.01645
0.07269
0.07269
0.02021
0.02032
0.01724
0.01709
0.07172
0.07182
0.02080
0.02053
0.01731
0.01767
0.07170
0.07166
0.02103
0.02057
0.01735
0.01770
0.07199
0.07205
0.02085
0.02038
0.01715
0.01768
0.07242
0.07223
0.02046
0.02050
0.01733
0.01728
0.07266
0.07366
0.01992
0.01915
0.01643
0.01656
0.07192
0.07187
0.02067
0.02038
0.01748
0.01734
0.07882
0.07645
0.02782
0.02352
0.01642
0.02465
0.13668
-0.04530
0.08749
0.02528
0.08909
0.02568
0.08532
0.08069
0.01252
0.01909
0.01190
0.01364
0.12979
0.00811
0.05388
0.02583
0.10392
0.02574
0.07109
0.07352
0.03192
0.01146
0.00953
0.02705
0.06668
0.06478
0.02569
0.02052
0.01581
0.02475
0.06615
0.06449
0.01853
0.02594
0.02162
0.01640
0.07003
0.07080
0.01688
0.02308
0.02074
0.01301
0.07592
0.07513
0.01518
0.02051
0.01704
0.01245
0.07182
0.07184
0.02081
0.02030
0.01703
0.01778
0.07268
0.07304
0.01955
0.02003
0.01695
0.01635
0.07161
0.07154
0.01951
0.02157
0.01803
0.01633
0.07084
0.06830
-0.00810
-0.00667
0.07076
-0.00601
-0.00502
0.06734
-0.00977
-0.00732
0.07283
-0.00274
-0.00800
-0.00547
-0.00875
0.07108
0.07130
-0.00529
-0.00551
0.07045
-0.00663
-0.00591
0.07166
-0.00520
-0.00601
0.07033
-0.00613
-0.00519
-0.00666
-0.00578
0.07009
0.07124
-0.00544
-0.00640
0.07099
-0.00627
-0.00669
0.07022
0.07062
-0.00644
-0.00654
-0.00681
-0.00580
-0.00575
-0.00545
0.07022
0.07099
-0.00598
-0.00662
0.07054
0.07075
-0.00651
-0.00661
0.07086
-0.00553
-0.00558
-0.00625
-0.00682
-0.00560
-0.00544
0.07109
0.07049
-0.00653
-0.00589
0.07155
-0.00498
-0.00556
0.07190
-0.00489
-0.00599
0.07041
-0.00607
-0.00508
-0.00645
-0.00559
0.06995
0.07507
-0.00300
-0.00584
0.06869
-0.00887
-0.00779
0.06496
-0.01055
-0.00164
0.07574
-0.00216
-0.01093
-0.00243
-0.00651
0.06388
0.09848
-0.00364
-0.02089
0.06023
-0.00498
-0.00550
0.06545
-0.00339
-0.00418
0.09648
-0.00805
-0.02199
-0.02921
-0.02776
0.11285
0.05073
-0.04625
-0.01011
0.09079
0.07345
-0.01138
0.00241
-0.04129
-0.03107
0.05476
-0.00111
-0.01084
-0.01406
0.00414
0.07092
0.07117
-0.00578
-0.00573
0.07128
-0.00559
-0.00603
0.07114
-0.00573
-0.00547
0.07089
-0.00607
-0.00563
-0.00581
-0.00561
0.07106
0.07128
-0.00552
-0.00578
0.07118
0.07119
-0.00551
-0.00562
-0.00566
-0.00574
0.07111
-0.00567
-0.00552
-0.00569
-0.00573
0.07114
0.07039
-0.00568
-0.00501
0.06953
-0.00732
-0.00613
0.06959
-0.00809
-0.00763
0.07191
-0.00519
-0.00701
-0.00430
-0.00635
0.07267
0.06999
-0.00627
-0.00479
0.06802
-0.00745
-0.00351
0.07258
-0.00529
-0.00940
0.07065
-0.00641
-0.00724
-0.00520
-0.00430
0.05523
0.05609
0.07717
0.07583
0.05663
0.05601
0.07702
0.07748
-0.01570
-0.01695
0.04882
-0.01557
-0.01675
0.04929
-0.01712
0.05002
-0.01705
0.04923
0.05562
0.05678
0.07756
0.07715
0.05666
0.05596
0.07637
0.07740
-0.01612
-0.01776
0.04860
-0.01696
-0.01961
0.04903
-0.01714
0.05012
-0.01787
0.05009
0.04548
0.05393
0.07799
0.07186
0.06050
0.07009
0.07791
0.07670
-0.01827
-0.01297
0.04721
0.00727
-0.01040
0.03484
-0.01705
0.05284
-0.04282
0.01304
0.05341
0.05182
0.07708
0.07843
0.08004
0.04447
0.04337
0.07605
-0.00288
-0.02154
0.03043
-0.02396
-0.01980
0.05170
-0.04070
0.02198
-0.01551
0.04611
0.05624
0.05397
0.07526
0.07784
0.05545
0.05648
0.07717
0.07620
-0.01608
-0.01729
0.04915
-0.01638
-0.01813
0.04604
-0.01753
0.04902
-0.01836
0.04979
0.05524
0.05624
0.07712
0.07635
0.05603
0.05530
0.07610
0.07719
-0.01406
-0.01546
0.04846
-0.01550
0.04917
-0.01418
-0.01552
0.04969
-0.01567
0.04881
0.05672
0.05606
0.07680
0.07774
0.05605
0.05652
0.07736
0.07715
-0.01457
-0.01604
0.04994
-0.01470
-0.01616
0.04952
-0.01591
0.04921
-0.01605
0.04994
0.05600
0.05688
0.07782
0.07675
0.05670
0.05607
0.07710
0.07765
-0.01462
-0.01607
0.04944
-0.01463
-0.01606
0.05021
-0.01597
0.05002
-0.01599
0.04928
0.05535
0.05612
0.07718
0.07637
0.05560
0.05561
0.07658
0.07648
-0.01431
-0.01570
0.04872
-0.01573
0.04901
-0.01399
-0.01539
0.04940
-0.01540
0.04903
0.05542
0.05560
0.07647
0.07640
0.05568
0.05538
0.07640
0.07678
-0.01476
-0.01609
0.04888
-0.01409
-0.01549
0.04907
-0.01629
0.04889
-0.01555
0.04876
0.05468
0.05532
0.07669
0.07615
0.05512
0.05526
0.07524
0.07466
-0.01397
-0.01595
0.04761
-0.01459
0.04873
-0.01471
-0.01648
0.04851
-0.01551
0.04862
0.05617
0.05684
0.07763
0.07685
0.05667
0.05594
0.07705
0.07769
-0.01513
-0.01669
0.04968
-0.01636
0.04992
-0.01505
-0.01660
0.05025
-0.01627
0.04909
0.05582
0.05533
0.07637
0.07706
0.05536
0.05621
0.07703
0.07635
-0.01374
-0.01528
0.04884
-0.01378
-0.01528
0.04873
-0.01510
0.04884
-0.01512
0.04970
0.05616
0.05803
0.07771
0.07637
0.05784
0.05568
0.07686
0.08037
-0.01686
-0.01764
0.04999
-0.01721
-0.01790
0.05294
-0.01863
0.05002
-0.02025
0.04694
0.05430
0.05574
0.07678
0.07530
0.05731
0.05302
0.07370
0.07841
-0.01483
-0.01615
0.04795
-0.01644
0.04984
-0.01273
-0.01458
0.04912
-0.01418
0.04581
0.05685
0.05658
0.07725
0.07761
0.05632
0.05675
0.07774
0.07741
-0.01536
-0.01686
0.05026
-0.01661
0.04947
-0.01538
-0.01687
0.05008
-0.01663
0.05000
0.05685
0.05561
0.07675
0.07775
0.05456
0.05599
0.07691
0.07518
-0.01482
-0.01664
0.05017
-0.01551
0.04824
-0.01448
-0.01637
0.04869
-0.01510
0.04939
0.05704
0.05591
0.07669
0.07804
0.05581
0.05675
0.07762
0.07688
-0.01446
-0.01596
0.05029
-0.01577
0.04900
-0.01458
-0.01606
0.04934
-0.01591
0.05014
0.05610
0.05695
0.07799
0.07688
0.05678
0.05622
0.07723
0.07764
-0.01469
-0.01613
0.04954
-0.01457
-0.01595
0.05015
-0.01605
0.05016
-0.01596
0.04949
0.05594
0.05645
0.07752
0.07670
0.05609
0.05639
0.07778
0.07697
-0.01489
-0.01606
0.04966
-0.01439
-0.01558
0.04970
-0.01661
0.04941
-0.01605
0.04952
0.04578
0.05832
0.08265
0.07377
0.06155
0.07747
0.08327
0.07251
-0.02281
-0.01521
0.04896
-0.02091
0.05601
0.00786
-0.01481
0.03603
-0.04804
0.00916
0.05721
0.04171
0.07089
0.08400
0.05975
0.07168
0.08899
0.07759
0.01740
-0.00930
0.03031
-0.02092
-0.01407
0.04502
-0.03142
0.00274
-0.02340
0.06298
0.05940
0.05397
0.07498
0.08231
0.05404
0.06080
0.07995
0.07358
-0.01610
-0.01773
0.05131
-0.01702
0.04812
-0.01719
-0.02053
0.04511
-0.01726
0.05663
-0.07692
-0.17304
0.06988
0.16838
0.00573
-0.03867
-0.05600
0.02083
0.23842
-0.00673
0.23664
0.01991
0.05424
0.05314
0.07255
0.07264
0.05303
0.05277
0.07499
0.07465
-0.01361
-0.01632
0.04749
-0.01464
0.04677
-0.01094
-0.01154
0.04757
-0.01307
0.04494
0.04664
0.06201
0.08155
0.06679
0.05844
0.04907
0.07045
0.08037
-0.00801
-0.00808
0.04101
-0.01101
0.05028
-0.01357
-0.01565
0.05442
-0.01481
0.04302
0.05619
0.05637
0.07731
0.07708
0.05636
0.05622
0.07718
0.07730
-0.01438
-0.01581
0.04953
-0.01575
0.04966
-0.01431
-0.01574
0.04968
-0.01570
0.04949
0.05621
0.05667
0.07759
0.07719
0.05682
0.05577
0.07658
0.07783
-0.01487
-0.01619
0.04947
-0.01634
0.05017
-0.01484
-0.01616
0.05012
-0.01630
0.04913
0.05628
0.05618
0.07731
0.07722
0.05614
0.05585
0.07680
0.07682
-0.01439
-0.01586
0.04962
-0.01565
0.04974
-0.01410
-0.01565
0.04936
-0.01525
0.04916
0.05842
0.05572
0.07626
0.07866
0.05590
0.05792
0.07957
0.07681
-0.01807
-0.01908
0.05257
-0.01973
0.04896
-0.01620
-0.01749
0.04918
-0.01765
0.05072
-0.01787
-0.01921
-0.01757
-0.01830
0.08568
0.08387
-0.02089
-0.01592
0.08623
-0.01271
-0.02039
0.08167
-0.02130
-0.01894
0.08687
-0.01824
-0.01668
-0.01823
-0.01692
0.08542
0.08568
-0.01668
-0.01732
0.08491
-0.01744
-0.01734
0.08613
-0.01727
-0.01662
0.08489
-0.01804
-0.01677
-0.01866
-0.01758
0.08446
0.08543
-0.01700
-0.01802
0.08577
-0.01728
-0.01787
-0.01676
-0.01791
0.08471
0.08493
-0.01765
-0.01739
-0.01687
-0.01810
0.08495
0.08533
-0.01669
-0.01836
-0.01666
-0.01812
0.08517
0.08569
-0.01863
-0.01642
0.08401
-0.01634
-0.01801
-0.01631
-0.01727
0.08525
0.08484
-0.01783
-0.01710
0.08599
-0.01737
-0.01737
0.08639
-0.01712
-0.01664
0.08508
-0.02012
-0.01571
-0.02139
-0.01765
0.08524
0.09033
-0.01522
-0.01911
0.08333
-0.01462
-0.01199
0.08024
-0.01747
-0.02183
0.09241
-0.01731
-0.01487
0.01337
-0.06705
0.08423
0.03665
-0.01600
-0.01791
0.08297
-0.01637
-0.01918
0.08866
0.01970
-0.07307
0.02744
0.04175
-0.11331
-0.01271
-0.01994
-0.00699
0.08207
-0.00218
-0.06416
-0.02493
-0.00865
0.06621
0.08804
-0.01130
-0.01846
0.07810
-0.01706
-0.01739
-0.01723
-0.01708
0.08555
0.08559
-0.01731
-0.01764
0.08606
-0.01768
-0.01692
0.08587
-0.01706
-0.01700
0.08532
-0.01713
-0.01695
-0.01715
-0.01730
0.08550
0.08597
-0.01721
-0.01691
-0.01715
-0.01708
0.08562
0.08584
-0.01728
-0.01694
0.08555
-0.01881
-0.01698
-0.01978
-0.01603
0.08517
0.08413
-0.01663
-0.01759
0.08483
-0.01504
-0.01977
0.08389
-0.01759
-0.01856
0.08648
-0.01826
-0.01787
-0.01757
-0.01661
0.08700
0.08521
-0.01747
-0.01373
0.08017
-0.01622
-0.02103
0.08856
-0.01613
-0.01883
0.08509
0.04882
0.04775
0.04720
0.04788
0.04788
0.04761
0.05004
0.04752
0.04616
0.09773
-0.01379
-0.03000
0.04773
0.04703
0.04550
0.04775
0.04855
0.04857
0.04873
0.04835
0.04824
0.04789
0.04894
0.04815
0.04750
0.04798
0.04705
0.04764
0.04800
0.04902
0.04800
0.04728
0.04887
0.04860
0.04759
0.04895
0.04467
0.05343
0.04789
0.04814
0.04718
0.04906
0.04891
0.04816
0.04836
0.04820
0.04871
0.04839
0.10877
-0.02554
-0.03751
0.05846
0.04692
0.04156
0.04269
0.04714
0.05221
0.04789
0.04909
0.04800
-0.12235
-0.04665
-0.24702
0.15486
-0.05763
-0.03978
-0.04194
-0.14097
0.02562
-0.05417
-0.07887
0.07120
-0.21598
0.07834
-0.05942
-0.10910
-0.14359
-0.15415
0.25777
-0.02889
-0.00608
0.06311
0.07541
0.01785
0.18584
0.21397
0.14305
0.02025
0.08902
-0.00135
-0.06953
-0.09138
0.16877
-0.06340
0.20142
-0.06137
-0.02918
0.19338
-0.07764
-0.08245
0.13102
-0.13749
-0.19812
-0.00611
-0.02585
0.07524
0.00314
-0.02378
0.28874
-0.06880
-0.08217
-0.15334
-0.11840
0.17392
-0.08871
0.08558
-0.01559
-0.16567
-0.15760
0.04733
-0.02533
-0.06036
-0.04927
-0.00923
-0.04888
0.41969
0.03461
0.16033
-0.06906
-0.11083
-0.04694
-0.03416
0.11147
-0.08559
0.20355
-0.10893
-0.06661
0.23141
0.12403
-0.10316
0.08337
-0.11604
0.01242
-0.14607
-0.00079
-0.16920
-0.15568
-0.03771
0.01605
-0.13672
0.02049
-0.08964
-0.11922
-0.05840
0.08693
0.05596
0.20592
-0.05585
0.05048
-0.01082
-0.15991
0.29365
-0.01344
-0.00792
0.15607
0.20362
-0.01488
0.14693
-0.04352
0.02075
0.17698
0.19626
-0.02449
0.17056
-0.01264
-0.01153
-0.13187
0.03313
0.01325
0.11627
-0.03314
0.10626
-0.05628
0.02320
0.10014
-0.06634
0.07486
0.06075
0.07938
-0.09070
0.12736
0.03122
0.22627
-0.09696
0.28773
0.02277
0.03642
-0.15856
-0.17728
0.00446
-0.19994
0.19275
0.05217
0.01641
-0.11001
-0.00345
0.15517
0.19520
-0.08412
0.10398
0.15649
0.12455
0.09001
0.19332
-0.09402
-0.06601
0.02478
0.02219
-0.19730
0.00234
-0.11074
-0.14749
0.23740
0.07019
0.14843
-0.02884
0.04006
0.23667
0.36103
-0.03637
-0.11187
0.16874
0.03439
0.04832
0.01347
0.02090
-0.04953
-0.17644
0.17477
0.24280
0.08150
0.13713
-0.07757
0.02174
-0.16199
0.00187
-0.15648
-0.10596
0.04734
-0.02478
0.13288
0.05303
0.31522
0.12738
0.09818
-0.06031
0.01273
0.01908
0.04397
-0.11629
-0.17915
0.10247
-0.22633
-0.09569
0.04116
-0.04186
0.29207
-0.13445
-0.06014
-0.00339
0.09509
0.14723
-0.09852
0.05120
-0.08770
0.09990
-0.13447
0.17953
0.20152
0.03233
0.18575
0.22566
-0.17599
-0.05623
-0.18538
-0.08718
0.04141
0.17393
-0.01621
0.08051
-0.17070
-0.20888
0.01935
-0.06591
-0.11586
0.06160
-0.09130
-0.06193
-0.00973
0.03245
-0.04833
-0.02150
-0.23825
-0.11723
-0.13849
0.09404
-0.25546
-0.03850
-0.24940
-0.02933
-0.21834
0.03254
-0.12360
-0.11407
0.10000
