# vtk DataFile Version 3.0
Point representing Sub_cellular elem model
ASCII

DATASET UNSTRUCTURED_GRID
POINTS 679 float
0.00028 1.73270 0.92318 
0.00281 1.73813 -1.22440 
1.74145 1.07194 -0.14325 
1.74177 -1.07792 -0.14169 
0.00275 -1.74561 -1.22276 
-0.00126 -1.74131 0.92522 
1.06165 -0.00608 1.62439 
-1.07315 -0.00633 1.60082 
1.08060 -0.00422 -1.88535 
-1.07269 -0.00381 -1.89004 
-1.74087 1.07420 -0.15124 
-1.74212 -1.07911 -0.15225 
0.00132 2.04951 -0.14912 
1.02556 1.65386 0.48713 
0.63264 1.01424 1.51569 
-0.63194 1.01528 1.50693 
-1.02528 1.65653 0.48258 
1.02881 1.65713 -0.78051 
0.63835 1.02225 -1.80648 
-0.63061 1.02245 -1.80887 
-1.02459 1.65797 -0.78429 
2.05190 -0.00277 -0.14135 
1.65323 0.62770 0.88567 
1.66383 0.63063 -1.16992 
1.02892 -1.66403 -0.77826 
1.02533 -1.66043 0.48898 
1.65374 -0.63309 0.88561 
1.66385 -0.63793 -1.16875 
0.00087 -2.05602 -0.14798 
0.63839 -1.03043 -1.80488 
-0.63079 -1.03032 -1.80802 
-1.02546 -1.66459 -0.78418 
0.62630 -1.02339 1.51954 
-0.63841 -1.02802 1.51232 
-1.02699 -1.66293 0.48196 
0.03477 0.54825 2.27690 
-1.65906 0.63005 0.87235 
-1.66059 -0.63659 0.87211 
0.00459 -0.00433 -2.19841 
-1.65865 0.63151 -1.17691 
-1.65925 -0.63756 -1.17707 
-2.05282 -0.00207 -0.15251 
0.00075 1.96641 0.42106 
0.52316 1.76369 0.74429 
0.32307 1.43706 1.26385 
-0.32317 1.43769 1.26163 
-0.52251 1.76513 0.74214 
0.00205 1.96857 -0.71997 
0.52625 1.76822 -1.04223 
0.32706 1.44424 -1.56548 
-0.32024 1.44432 -1.56663 
-0.52116 1.76849 -1.04404 
1.44726 1.41297 0.17900 
1.44966 1.41450 -0.46828 
1.97092 0.56762 -0.14207 
1.76834 0.88948 0.38114 
1.77346 0.89125 -0.66689 
1.97116 -0.57330 -0.14118 
1.44986 -1.42099 -0.46623 
1.44754 -1.41909 0.18067 
1.76885 -0.89489 0.38209 
1.77360 -0.89781 -0.66537 
0.52629 -1.77547 -1.04015 
0.00185 -1.97557 -0.71847 
0.32711 -1.45205 -1.56365 
-0.32036 -1.45209 -1.56534 
-0.52155 -1.77571 -1.04309 
0.52229 -1.77104 0.74642 
-0.00014 -1.97320 0.42203 
0.32063 -1.44648 1.26813 
-0.32581 -1.44847 1.26575 
-0.52426 -1.77284 0.74285 
0.89134 0.51322 1.64508 
1.40799 0.31617 1.31312 
1.40806 -0.32376 1.31197 
0.88729 -0.52691 1.64250 
0.55131 -0.00727 1.90375 
-0.89962 0.51807 1.61895 
-0.90199 -0.52661 1.62788 
-0.56079 0.00494 1.87593 
-1.41731 0.31696 1.29345 
-1.41837 -0.32674 1.29515 
0.89922 0.51928 -1.91626 
1.42234 0.31956 -1.59171 
1.42234 -0.32755 -1.59110 
0.89923 -0.52772 -1.91534 
0.57592 -0.00436 -2.11616 
-0.89109 0.51962 -1.91990 
-0.89124 -0.52742 -1.91950 
-0.56708 -0.00414 -2.11864 
-1.41553 0.32016 -1.59772 
-1.41575 -0.32705 -1.59764 
-1.44725 1.41582 0.17225 
-1.44690 1.41614 -0.47421 
-1.77092 0.89228 0.37134 
-1.77045 0.89269 -0.67456 
-1.97125 0.56942 -0.15194 
-1.44815 -1.42188 -0.47483 
-1.44875 -1.42121 0.17117 
-1.77221 -0.89720 0.37026 
-1.77145 -0.89800 -0.67515 
-1.97202 -0.57381 -0.15264 
0.55723 1.94658 0.15711 
-0.55543 1.94783 0.15511 
0.55829 1.94785 -0.45325 
-0.55495 1.94854 -0.45520 
0.89777 1.38430 1.05712 
1.05194 1.75806 -0.14640 
1.39076 1.19774 0.75605 
0.00018 1.04473 1.60829 
1.19927 0.88989 1.25289 
0.30560 0.54881 1.84240 
-0.89850 1.38672 1.05120 
-0.29999 0.54413 1.83503 
-1.20388 0.89334 1.23853 
-1.04980 1.75984 -0.15049 
-1.39326 1.20130 0.74715 
0.90376 1.39106 -1.35192 
1.39773 1.20228 -1.04516 
0.00404 1.04671 -1.90930 
1.20970 0.89646 -1.53950 
0.31000 0.55211 -2.09687 
-0.89760 1.39140 -1.35519 
-0.30120 0.55222 -2.09810 
-1.20290 0.89695 -1.54420 
-1.39272 1.20311 -1.05059 
1.94680 0.30205 0.41539 
1.95294 0.30213 -0.69884 
1.94706 -0.30676 0.41571 
1.95299 -0.30866 -0.69828 
1.75411 -0.00232 0.91112 
1.76553 -0.00368 -1.19355 
1.05198 -1.76451 -0.14432 
1.39781 -1.20939 -1.04317 
0.55823 -1.95457 -0.45128 
0.90384 -1.39860 -1.34982 
1.39093 -1.20412 0.75693 
0.55691 -1.95307 0.15885 
0.89639 -1.39201 1.05936 
1.19827 -0.89821 1.25253 
1.20972 -0.90430 -1.53792 
-0.55560 -1.95514 -0.45468 
-0.55647 -1.95414 0.15520 
0.00403 -1.05493 -1.90798 
0.31001 -0.56070 -2.09602 
-0.89811 -1.39868 -1.35461 
-0.30123 -0.56060 -2.09744 
-1.20337 -0.90407 -1.54391 
-1.05097 -1.76584 -0.15096 
-1.39363 -1.20952 -1.05070 
-0.00591 -1.05476 1.61668 
0.28570 -0.55116 1.84907 
-0.90143 -1.39598 1.05252 
-0.32163 -0.55581 1.83771 
-1.20695 -0.90259 1.24134 
-1.39532 -1.20787 0.74670 
-1.76160 -0.00324 0.89620 
-1.95090 0.30323 0.40338 
-1.95142 -0.30774 0.40288 
-1.76064 -0.00292 -1.20166 
-1.95039 0.30325 -0.70804 
-1.95078 -0.30814 -0.70828 
0.00052 1.86617 0.68349 
0.26092 1.76495 0.84428 
0.16112 1.60175 1.10310 
-0.16096 1.60213 1.10227 
-0.26025 1.76565 0.84322 
0.00244 1.86991 -0.98336 
0.26376 1.77001 -1.14404 
0.16447 1.60848 -1.40489 
-0.15822 1.60853 -1.40545 
-0.25838 1.77012 -1.14493 
1.61158 1.25245 0.01753 
1.61296 1.25312 -0.30524 
1.87269 0.83087 -0.14262 
1.77188 0.99146 0.11813 
1.77436 0.99238 -0.40426 
1.87299 -0.83670 -0.14136 
1.61322 -1.25937 -0.30341 
1.61193 -1.25844 0.01918 
1.77230 -0.99714 0.11944 
1.77459 -0.99862 -0.40268 
0.26375 -1.77740 -1.14216 
0.00231 -1.87717 -0.98175 
0.16448 -1.61612 -1.40311 
-0.15830 -1.61616 -1.40397 
-0.25857 -1.77751 -1.14359 
0.25973 -1.77292 0.84640 
-0.00067 -1.87370 0.68477 
0.15931 -1.61101 1.10626 
-0.16296 -1.61179 1.10518 
-0.26191 -1.77391 0.84466 
0.98939 0.25142 1.65387 
1.24589 0.15368 1.48402 
1.24644 -0.16307 1.48245 
0.99043 -0.26451 1.65015 
0.81944 -0.00731 1.77306 
-1.00509 0.25287 1.62372 
-1.00174 -0.26431 1.63107 
-0.83072 -0.00470 1.74686 
-1.25813 0.15270 1.46039 
-1.25746 -0.16499 1.46295 
1.00063 0.25674 -1.91759 
1.26142 0.15717 -1.75581 
1.26142 -0.16542 -1.75551 
1.00063 -0.26522 -1.91712 
0.83946 -0.00431 -2.01725 
-0.99254 0.25713 -1.92178 
-0.99264 -0.26485 -1.92160 
-0.83101 -0.00398 -2.02088 
-1.25400 0.15767 -1.76121 
-1.25409 -0.16495 -1.76113 
-1.61139 1.25502 0.01006 
-1.61122 1.25512 -0.31226 
-1.77284 0.99406 0.10937 
-1.77255 0.99424 -0.41214 
-1.87258 0.83301 -0.15158 
-1.61252 -1.26040 -0.31312 
-1.61279 -1.26011 0.00898 
-1.77410 -0.99884 0.10827 
-1.77370 -0.99928 -0.41297 
-1.87363 -0.83765 -0.15250 
0.00101 2.02837 0.14064 
0.00168 2.02930 -0.43903 
0.28589 2.02318 -0.00040 
-0.28361 2.02374 -0.00138 
0.28631 2.02370 -0.29684 
-0.28333 2.02413 -0.29781 
0.78076 1.72645 0.62412 
1.25003 1.54829 0.33720 
0.80560 1.82241 0.32223 
0.97961 1.53467 0.78292 
1.04575 1.73105 0.17514 
1.21933 1.44386 0.63653 
0.48315 1.24071 1.40129 
0.77083 0.77117 1.59738 
0.77982 1.20979 1.30311 
0.32567 1.03952 1.58459 
0.92651 0.97012 1.39986 
0.47060 0.79420 1.69380 
-0.48307 1.24134 1.39673 
-0.77446 0.77703 1.57804 
-0.32459 1.03933 1.58016 
-0.78035 1.21156 1.29589 
-0.46717 0.79425 1.68418 
-0.92933 0.97382 1.38621 
-0.78025 1.72858 0.62081 
-1.24997 1.55121 0.33142 
-0.80444 1.82438 0.31909 
-0.98000 1.53742 0.77786 
-1.04460 1.73335 0.17087 
-1.22026 1.44714 0.63001 
0.78399 1.73038 -0.91989 
1.25305 1.55073 -0.62839 
0.80757 1.82462 -0.61714 
1.04739 1.73261 -0.46807 
0.98439 1.53978 -1.07703 
1.22429 1.44802 -0.92801 
0.48670 1.24694 -1.70087 
0.77730 0.77716 -1.87902 
0.78628 1.21763 -1.59751 
0.32587 1.04140 -1.88271 
0.93488 0.97741 -1.68861 
0.47446 0.80118 -1.97381 
-0.47937 1.24707 -1.70263 
-0.76928 0.77742 -1.88204 
-0.31788 1.04149 -1.88392 
-0.77927 1.21788 -1.60039 
-0.46612 0.80133 -1.97563 
-0.92754 0.97773 -1.69216 
-0.77927 1.73089 -0.92266 
-1.24946 1.55195 -0.63323 
-0.80381 1.82543 -0.62003 
-1.04421 1.73387 -0.47201 
-0.97916 1.54031 -1.08060 
-1.21961 1.44884 -0.93263 
2.03146 0.28692 -0.14165 
2.03159 -0.29250 -0.14119 
2.02442 0.14548 0.14357 
2.02757 0.14523 -0.42658 
2.02452 -0.15053 0.14377 
2.02761 -0.15128 -0.42632 
1.72849 0.76702 0.63961 
1.54518 0.47586 1.11219 
1.53744 0.92309 0.83906 
1.44394 0.77377 1.08062 
1.82192 0.46550 0.66453 
1.72819 0.31724 0.90564 
1.73640 0.76948 -0.92484 
1.55803 0.47907 -1.39453 
1.54644 0.92726 -1.12557 
1.45515 0.77874 -1.36570 
1.83066 0.46661 -0.94840 
1.73952 0.31810 -1.18863 
1.25318 -1.55743 -0.62619 
0.78407 -1.73746 -0.91768 
1.04748 -1.73925 -0.46587 
1.22440 -1.45502 -0.92582 
0.80762 -1.83143 -0.61496 
0.98449 -1.54698 -1.07482 
1.25011 -1.55461 0.33891 
0.78021 -1.73333 0.62616 
1.04570 -1.73745 0.17707 
1.21925 -1.45042 0.63801 
0.80532 -1.82893 0.32413 
0.97902 -1.54169 0.78485 
1.72906 -0.77227 0.64010 
1.54548 -0.48196 1.11157 
1.82236 -0.47024 0.66479 
1.72849 -0.32207 0.90559 
1.53787 -0.92908 0.83933 
1.44411 -0.78048 1.08017 
1.73646 -0.77640 -0.92345 
1.55803 -0.48673 -1.39362 
1.83068 -0.47356 -0.94753 
1.73953 -0.32544 -1.18801 
1.54648 -0.93449 -1.12393 
1.45517 -0.78633 -1.36428 
0.00137 -2.03603 -0.43769 
0.00037 -2.03484 0.14161 
0.28608 -2.03032 -0.29522 
0.28551 -2.02966 0.00107 
-0.28387 -2.03068 -0.29700 
-0.28433 -2.03014 -0.00078 
0.48676 -1.25493 -1.69909 
0.77731 -0.78549 -1.87771 
0.78634 -1.22550 -1.59563 
0.93491 -0.98544 -1.68698 
0.32590 -1.04964 -1.88122 
0.47448 -0.80959 -1.97255 
-0.47953 -1.25491 -1.70155 
-0.76946 -0.78528 -1.88142 
-0.31795 -1.04958 -1.88281 
-0.77960 -1.22546 -1.59963 
-0.46621 -0.80947 -1.97481 
-0.92786 -0.98528 -1.69159 
-0.77990 -1.73786 -0.92213 
-1.25055 -1.55815 -0.63352 
-0.80458 -1.83206 -0.61975 
-0.97986 -1.54727 -1.08025 
-1.04522 -1.74015 -0.47219 
-1.22054 -1.45539 -0.93265 
0.47906 -1.24961 1.40626 
0.76466 -0.78342 1.59723 
0.77679 -1.21835 1.30596 
0.92337 -0.97987 1.40048 
0.31820 -1.04781 1.59180 
0.45846 -0.80238 1.69906 
-0.48689 -1.25319 1.40198 
-0.77961 -0.78569 1.58703 
-0.33046 -1.05131 1.58782 
-0.78448 -1.22282 1.29919 
-0.47870 -0.80702 1.69045 
-0.93350 -0.98404 1.39136 
-0.78202 -1.73564 0.62078 
-1.25157 -1.55703 0.33049 
-0.80582 -1.83069 0.31875 
-1.04598 -1.73930 0.17018 
-0.98219 -1.54493 0.77785 
-1.22222 -1.45364 0.62940 
0.27838 -0.39204 2.05628 
0.19185 -0.39387 2.29183 
0.39890 0.32623 2.18917 
0.12623 -0.14268 2.98839 
-0.25378 -0.42056 2.05187 
-0.34203 -0.31041 2.33142 
-1.55263 0.47756 1.09606 
-1.73272 0.76975 0.62835 
-1.44961 0.77687 1.06649 
-1.54170 0.92641 0.82770 
-1.73510 0.31805 0.89118 
-1.82716 0.46715 0.65198 
-1.55416 -0.48555 1.09673 
[...]
CELL_DATA 2029
SCALARS Strain double 
LOOKUP_TABLE default 
-0.08917
-0.08957
-0.08841
-0.09003
-0.08860
-0.08794
-0.08732
-0.08763
-0.08768
-0.08738
-0.08894
-0.08727
-0.08872
-0.08640
-0.08753
-0.08831
-0.08712
-0.08881
-0.08687
-0.08784
-0.08695
-0.08841
-0.08801
-0.08754
-0.08730
-0.08878
-0.08867
-0.08752
-0.08893
-0.08779
-0.10666
-0.06581
-0.06718
-0.10593
-0.05645
-0.10703
-0.10561
-0.06034
-0.06551
-0.07187
-0.08753
-0.08758
-0.08750
-0.08761
-0.08746
-0.08763
-0.08746
-0.08756
-0.08747
-0.08780
-0.08789
-0.08795
-0.08856
-0.08793
-0.08761
-0.08750
-0.08783
-0.08873
-0.08870
-0.08714
-0.03544
-0.03515
0.06959
0.06901
0.06915
0.06957
-0.03797
-0.03767
0.07061
0.06968
0.06918
0.07051
-0.02232
-0.03287
0.07629
0.04788
0.05889
0.08298
-0.02970
-0.04854
0.05203
0.07628
0.08815
0.07444
-0.03584
-0.03532
0.06900
0.06774
0.06778
0.06861
-0.03357
-0.03352
0.06910
0.06892
0.06900
0.06912
-0.03413
-0.03411
0.06926
0.06979
0.06981
0.06931
-0.03423
-0.03422
0.06966
0.06943
0.06946
0.06957
-0.03409
-0.03419
0.06948
0.06896
0.06919
0.06951
-0.03582
-0.03572
0.07022
0.06991
0.07004
0.06993
-0.02854
-0.02612
0.06469
0.06629
0.06898
0.06244
-0.03424
-0.03425
0.06935
0.06972
0.06967
0.06941
-0.03329
-0.03328
0.06855
0.06899
0.06894
0.06874
-0.03635
-0.03651
0.06882
0.07022
0.07057
0.06956
-0.03022
-0.02854
0.06922
0.06409
0.06643
0.06823
-0.03422
-0.03418
0.06960
0.06937
0.06930
0.06968
-0.03584
-0.03597
0.06905
0.07031
0.07032
0.06904
-0.03440
-0.03433
0.06929
0.06990
0.06992
0.06939
-0.03400
-0.03399
0.06985
0.06886
0.06904
0.06981
-0.03377
-0.03379
0.07004
0.06808
0.06780
0.06997
-0.02814
-0.04486
0.08230
0.07232
0.05378
0.09736
-0.02731
-0.03637
0.05552
0.07434
0.08132
0.06885
-0.03451
-0.03435
0.06912
0.06758
0.06801
0.06892
-0.10107
-0.04414
0.10916
0.07247
0.01765
-0.03416
-0.03504
0.06613
0.06860
0.06802
0.06739
-0.03438
-0.03518
0.06902
0.06821
0.06754
0.06927
-0.03396
-0.03398
0.06936
0.06950
0.06950
0.06933
-0.03405
-0.03408
0.06909
0.06964
0.06973
0.06886
-0.03491
-0.03509
0.06965
0.06998
0.06997
0.06953
-0.03377
-0.03365
0.06877
0.06801
0.06813
0.06899
-0.06732
-0.04653
0.07926
0.07808
0.03275
0.03368
-0.06821
-0.04820
0.07971
0.07735
0.03221
0.03499
-0.06570
-0.04309
0.07668
0.07784
0.02961
0.02938
-0.06833
-0.04712
0.07855
0.07732
0.03159
0.03164
-0.06685
-0.04647
0.07811
0.07718
0.03175
0.03278
-0.06617
-0.04572
0.07986
0.07994
0.03440
0.03420
-0.06525
-0.04449
0.07980
0.07931
0.03350
0.03405
-0.06565
-0.04498
0.07945
0.08014
0.03450
0.03391
-0.06573
-0.04507
0.08008
0.07961
0.03403
0.03432
-0.06544
-0.04483
0.07984
0.07949
0.03367
0.03410
-0.06778
-0.04790
0.08046
0.07958
0.03476
0.03582
-0.06512
-0.04436
0.07983
0.07886
0.03300
0.03391
-0.06714
-0.04664
0.07975
0.08054
0.03539
0.03429
-0.06336
-0.04126
0.07799
0.07887
0.03151
0.03085
-0.06562
-0.04502
0.07903
0.08022
0.03448
0.03353
-0.06674
-0.04636
0.07942
0.08042
0.03523
0.03411
-0.06495
-0.04417
0.07931
0.07897
0.03312
0.03359
-0.06737
-0.04705
0.07968
0.08015
0.03499
0.03471
-0.06415
-0.04243
0.07867
0.07899
0.03193
0.03203
-0.06582
-0.04510
0.08018
0.07915
0.03362
0.03451
-0.06486
-0.04413
0.07950
0.07908
0.03311
0.03375
-0.06682
-0.04645
0.07964
0.08057
0.03500
0.03414
-0.06602
-0.04530
0.07939
0.08042
0.03475
0.03397
-0.06553
-0.04484
0.08035
0.07893
0.03355
0.03457
-0.06529
-0.04461
0.08039
0.07864
0.03273
0.03450
-0.06719
-0.04694
0.08024
0.07860
0.03265
0.03487
-0.06721
-0.04678
0.08017
0.07860
0.03310
0.03456
-0.06510
-0.04387
0.07933
0.07821
0.03157
0.03441
-0.06696
-0.04558
0.07913
0.07908
0.03357
0.03360
-0.06570
-0.04510
0.07850
0.07835
0.03220
0.03291
-0.07142
-0.04155
0.07363
0.10022
0.04816
0.02260
-0.04995
-0.03377
0.07773
0.06661
0.02633
0.03658
-0.05506
-0.03735
0.06921
0.08217
0.03821
0.02899
-0.06357
-0.04417
0.08434
0.08351
0.04188
0.03982
-0.00969
0.15469
0.14125
0.15084
0.02597
0.02563
-0.05232
-0.03546
0.06480
0.07479
0.02940
0.02861
-0.06825
-0.03910
0.09619
0.07676
0.02138
0.03938
-0.00612
0.15123
0.16233
0.02604
0.02584
-0.05981
-0.04314
0.07273
0.07598
0.03452
0.03122
-0.05968
-0.04331
0.07850
0.07270
0.03159
0.03609
-0.06556
-0.04492
0.07998
0.07969
0.03399
0.03432
-0.06567
-0.04506
0.07994
0.07982
0.03417
0.03423
-0.06558
-0.04496
0.07979
0.07989
0.03414
0.03407
-0.06569
-0.04509
0.07997
0.07979
0.03408
0.03435
-0.06546
-0.04479
0.07970
0.07982
0.03414
0.03400
-0.06567
-0.04503
0.07985
0.07971
0.03416
0.03417
-0.06547
-0.04481
0.07950
0.07994
0.03429
0.03370
-0.06554
-0.04484
0.07986
0.07960
0.03399
0.03418
-0.06551
-0.04486
0.07954
0.07993
0.03418
0.03369
-0.06602
-0.04555
0.07993
0.08002
0.03441
0.03425
-0.06623
-0.04587
0.07856
0.07948
0.03376
0.03257
-0.06591
-0.04514
0.07902
0.07983
0.03405
0.03376
-0.06689
-0.04622
0.07944
0.07889
0.03261
0.03364
-0.06577
-0.04498
0.07992
0.07895
0.03362
0.03435
-0.06556
-0.04476
0.07930
0.07866
0.03276
0.03380
-0.06541
-0.04467
0.07802
0.08020
0.03443
0.03264
-0.06586
-0.04518
0.07795
0.07994
0.03418
0.03245
-0.06698
-0.04631
0.07986
0.07894
0.03349
0.03401
-0.06681
-0.04607
0.08031
0.07950
0.03420
0.03474
-0.06510
-0.04442
0.07860
0.07912
0.03308
0.03280
0.07224
0.07259
0.01915
0.01888
0.01600
0.01589
0.07140
0.07139
0.02005
0.01851
0.01582
0.01687
0.07168
0.07163
0.02083
0.01964
0.01625
0.01780
0.07204
0.07200
0.02044
0.01975
0.01624
0.01718
0.07324
0.07519
0.02318
0.01159
0.00989
0.01838
0.07148
0.07142
0.02123
0.01912
0.01583
0.01797
0.07197
0.06984
0.02355
0.01604
0.01116
0.02239
0.08364
0.08243
0.01371
0.01754
0.01282
0.01035
0.06261
0.06566
0.03110
0.01653
0.01653
0.02497
0.09874
0.15381
0.03927
0.02601
0.07908
0.02582
0.07334
0.07102
0.01512
0.01999
0.01384
0.01485
0.11735
0.05555
0.09589
0.02574
0.07720
0.02609
0.06897
0.06834
0.01768
0.02013
0.01600
0.01540
0.07068
0.07112
0.02014
0.02023
0.01690
0.01709
0.07113
0.07114
0.01872
0.01835
0.01476
0.01552
0.07160
0.07169
0.02036
0.02085
0.01769
0.01721
0.07169
0.07177
0.02018
0.02084
0.01769
0.01701
0.07227
0.07223
0.02027
0.02038
0.01723
0.01712
0.07231
0.07228
0.02026
0.02046
0.01725
0.01704
0.07186
0.07187
0.02064
0.02045
0.01725
0.01745
0.07190
0.07183
0.02054
0.02040
0.01723
0.01726
0.07199
0.07200
0.02055
0.02032
0.01713
0.01742
0.07195
0.07179
0.02046
0.02045
0.01725
0.01726
0.07205
0.07209
0.02029
0.02014
0.01713
0.01722
0.07289
0.07262
0.02229
0.01656
0.01332
0.01972
0.07228
0.07220
0.02051
0.01988
0.01673
0.01724
0.07254
0.07231
0.02214
0.01732
0.01359
0.01958
0.07221
0.07211
0.02048
0.01995
0.01675
0.01730
0.06457
0.06515
0.02329
0.02420
0.02036
0.02003
0.07193
0.07192
0.02051
0.02040
0.01720
0.01731
0.07096
0.07102
0.01930
0.02141
0.01826
0.01606
0.07160
0.07170
0.02000
0.02090
0.01780
0.01694
0.07145
0.07151
0.01917
0.02136
0.01822
0.01579
0.07146
0.07165
0.02010
0.02105
0.01785
0.01699
0.07214
0.07085
0.02194
0.01773
0.01432
0.02012
0.07293
0.07283
0.01883
0.01940
0.01613
0.01567
0.07369
0.07724
0.02182
0.01570
0.01446
0.01586
0.07070
0.07135
0.01699
0.02714
0.02194
0.01528
0.07228
0.07235
0.02032
0.02032
0.01705
0.01707
0.07278
0.07267
0.02049
0.01877
0.01536
0.01732
0.07152
0.07153
0.02093
0.01837
0.01521
0.01771
0.07243
0.07240
0.02038
0.02002
0.01695
0.01726
0.07196
0.07199
0.02069
0.02027
0.01703
0.01751
0.07114
0.07087
0.02084
0.02076
0.01757
0.01763
0.07168
0.07177
0.02064
0.02048
0.01729
0.01749
0.07227
0.07223
0.01984
0.02074
0.01757
0.01646
0.07008
0.06998
0.02076
0.02049
0.01733
0.01762
0.07247
0.07248
0.01919
0.02068
0.01759
0.01624
0.07948
0.08184
0.02147
0.01942
0.01537
0.01853
0.12815
-0.15695
0.08071
0.02606
0.07318
0.02566
0.07330
0.07147
0.01782
0.02011
0.01556
0.01637
0.09845
0.04837
0.03528
0.02560
0.08228
0.02530
0.07026
0.07120
0.02230
0.01895
0.01618
0.01752
0.07132
0.07109
0.01909
0.01982
0.01652
0.01652
0.07046
0.07039
0.01820
0.02056
0.01641
0.01532
0.07059
0.07100
0.02001
0.01897
0.01593
0.01700
0.07113
0.07066
0.02032
0.01910
0.01562
0.01713
0.07233
0.07241
0.01981
0.02053
0.01729
0.01643
0.07112
0.07086
0.02077
0.02027
0.01721
0.01771
0.07189
0.07171
0.02105
0.01922
0.01622
0.01781
0.07021
0.06873
-0.00771
-0.00658
0.06852
-0.00773
-0.00590
0.06932
-0.00879
-0.00906
0.06917
-0.00708
-0.00745
-0.00786
-0.00798
0.07113
0.07113
-0.00550
-0.00560
0.07067
-0.00629
-0.00580
0.07135
-0.00542
-0.00597
0.07077
-0.00587
-0.00554
-0.00619
-0.00582
0.07164
0.07032
-0.00539
-0.00410
0.06984
-0.00721
-0.00578
0.07040
0.07175
-0.00433
-0.00574
-0.00778
-0.00777
-0.00534
-0.00675
0.07015
0.07165
-0.00469
-0.00599
0.07104
0.07008
-0.00701
-0.00613
0.07092
-0.00511
-0.00499
-0.00704
-0.00753
-0.00650
-0.00527
0.07088
0.07050
-0.00673
-0.00616
0.07161
-0.00498
-0.00561
0.07166
-0.00508
-0.00589
0.07011
-0.00635
-0.00533
-0.00694
-0.00551
0.07113
0.06980
-0.00722
-0.00545
0.06952
-0.00703
-0.00563
0.06996
-0.00758
-0.00672
0.07039
-0.00563
-0.00625
-0.00731
-0.00738
0.07170
0.10129
0.01173
-0.01084
0.05165
-0.01572
0.00095
0.07046
0.00136
-0.00975
0.10361
0.00099
-0.01559
-0.03612
-0.03876
0.11066
0.05377
-0.03838
-0.00923
0.10141
0.06822
-0.01482
0.00141
-0.04404
-0.04499
0.05477
-0.00163
-0.00933
-0.00973
-0.00033
0.07117
0.07097
-0.00584
-0.00562
0.07104
-0.00572
-0.00568
0.07112
-0.00577
-0.00581
0.07108
-0.00574
-0.00561
-0.00574
-0.00585
0.07115
0.07088
-0.00577
-0.00568
0.07083
0.07113
-0.00569
-0.00610
-0.00589
-0.00568
0.07113
-0.00577
-0.00610
-0.00558
-0.00564
0.07012
0.07082
-0.00610
-0.00703
0.07103
-0.00593
-0.00617
0.07057
-0.00659
-0.00597
0.07013
-0.00627
-0.00564
-0.00695
-0.00608
0.06940
0.07137
-0.00570
-0.00718
0.07141
-0.00560
-0.00731
0.07010
-0.00632
-0.00545
0.07044
-0.00574
-0.00518
-0.00689
-0.00701
0.05550
0.05616
0.07705
0.07620
0.05651
0.05616
0.07716
0.07737
-0.01580
-0.01748
0.04890
-0.01583
-0.01759
0.04951
-0.01694
0.04997
-0.01689
0.04939
0.05494
0.05793
0.07791
0.07554
0.05720
0.05746
0.07756
0.07764
-0.01703
-0.01822
0.04849
-0.01992
-0.02189
0.05065
-0.01824
0.05046
-0.02043
0.05207
0.04256
0.04398
0.07246
0.07610
0.06465
0.04971
0.06667
0.08358
-0.01334
-0.01061
0.04010
0.01311
-0.01392
0.01761
-0.01592
0.05622
-0.01787
0.01663
0.04762
0.04691
0.07732
0.07322
0.08086
0.04733
0.04917
0.07472
0.00271
-0.01906
0.02549
-0.02145
-0.01535
0.04835
-0.05029
0.01453
-0.01513
0.04624
0.05407
0.05568
0.07627
0.07459
0.05579
0.05443
0.07569
0.07673
-0.01548
-0.01687
0.04793
-0.01659
-0.01911
0.04787
-0.01660
0.04927
-0.01769
0.04763
0.05563
0.05610
0.07707
0.07670
0.05555
0.05589
0.07687
0.07659
-0.01401
-0.01552
0.04883
-0.01534
0.04882
-0.01411
-0.01555
0.04945
-0.01551
0.04926
0.05664
0.05608
0.07693
0.07756
0.05610
0.05653
0.07748
0.07708
-0.01463
-0.01605
0.04999
-0.01463
-0.01605
0.04945
-0.01599
0.04937
-0.01601
0.04985
0.05621
0.05643
0.07745
0.07710
0.05638
0.05627
0.07723
0.07722
-0.01475
-0.01616
0.04958
-0.01469
-0.01609
0.04965
-0.01613
0.04978
-0.01607
0.04958
0.05580
0.05628
0.07724
0.07692
0.05625
0.05596
0.07659
0.07726
-0.01467
-0.01597
0.04884
-0.01618
0.04951
-0.01466
-0.01595
0.04962
-0.01618
0.04946
0.05722
0.05659
0.07763
0.07784
0.05724
0.05649
0.07735
0.07778
-0.01723
-0.01870
0.05084
-0.01560
-0.01703
0.04975
-0.01837
0.05100
-0.01693
0.04978
0.05322
0.05131
0.07403
0.07630
0.04989
0.05678
0.07430
0.06765
-0.00736
-0.01118
0.04411
-0.00587
0.04639
-0.01007
-0.01267
0.04407
-0.01016
0.05109
0.05657
0.05600
0.07683
0.07749
0.05627
0.05642
0.07741
0.07723
-0.01481
-0.01620
0.04995
-0.01618
0.04956
-0.01472
-0.01607
0.04937
-0.01611
0.04973
0.05553
0.05561
0.07644
0.07658
0.05527
0.05587
0.07681
0.07646
-0.01369
-0.01510
0.04880
-0.01392
-0.01536
0.04911
-0.01511
0.04840
-0.01530
0.04927
0.05725
0.05653
0.07684
0.07790
0.05508
0.05740
0.07807
0.07637
-0.01635
-0.01766
0.05066
-0.01735
-0.01868
0.05087
-0.01757
0.04827
-0.01926
0.04967
0.05273
0.05425
0.07622
0.07543
0.05768
0.05186
0.06953
0.07767
-0.01092
-0.01331
0.04486
-0.01142
0.05118
-0.01023
-0.01317
0.04708
-0.00997
0.04728
0.05601
0.05656
0.07744
0.07685
0.05633
0.05619
0.07719
0.07735
-0.01464
-0.01606
0.04937
-0.01601
0.04962
-0.01479
-0.01626
0.04997
-0.01611
0.04944
0.05718
0.05611
0.07697
0.07808
0.05557
0.05697
0.07786
0.07643
-0.01631
-0.01753
0.05053
-0.01777
0.04888
-0.01653
-0.01773
0.04944
-0.01799
0.05030
0.05680
0.05614
0.07693
0.07776
0.05616
0.05660
0.07751
0.07717
-0.01485
-0.01632
0.05010
-0.01617
0.04939
-0.01488
-0.01636
0.04955
-0.01621
0.04995
0.05576
0.05668
0.07769
0.07648
0.05654
0.05576
0.07685
0.07745
-0.01456
-0.01598
0.04924
-0.01441
-0.01581
0.04997
-0.01594
0.04991
-0.01580
0.04889
0.05471
0.05673
0.07782
0.07592
0.05675
0.05481
0.07545
0.07768
-0.01439
-0.01578
0.04779
-0.01425
-0.01563
0.05002
-0.01581
0.05014
-0.01570
0.04841
0.04819
0.05526
0.07772
0.07621
0.06290
0.07319
0.08005
0.07745
-0.01910
-0.01358
0.04794
-0.01873
0.05475
0.00381
-0.01459
0.03777
-0.04022
0.01881
0.04865
0.05012
0.07855
0.07458
0.05879
0.05673
0.07473
0.07302
0.00802
-0.01484
0.02596
-0.01667
-0.01466
0.04851
-0.02002
0.02061
-0.01540
0.05004
0.05422
0.05571
0.07640
0.07536
0.05610
0.05461
0.07529
0.07705
-0.01456
-0.01584
0.04751
-0.01593
0.04948
-0.01520
-0.01714
0.04848
-0.01652
0.04845
-0.02010
-0.06541
0.18798
-0.10957
0.10287
-0.08755
0.07090
-0.00295
0.22296
0.20880
0.07161
-0.12943
0.05551
0.05365
0.07256
0.07496
0.05391
0.05538
0.07659
0.07574
-0.01587
-0.01713
0.04861
-0.01745
0.04667
-0.01553
-0.01610
0.04770
-0.01731
0.04873
0.05432
0.05681
0.07666
0.07355
0.05570
0.05543
0.07669
0.07659
-0.01509
-0.01533
0.04818
-0.01714
0.04893
-0.01636
-0.01788
0.04912
-0.01760
0.04885
0.05629
0.05614
0.07711
0.07723
0.05615
0.05631
0.07725
0.07704
-0.01447
-0.01585
0.04961
-0.01590
0.04949
-0.01444
-0.01582
0.04942
-0.01586
0.04963
0.05639
0.05575
0.07689
0.07741
0.05582
0.05654
0.07739
0.07649
-0.01459
-0.01596
0.04967
-0.01604
0.04935
-0.01458
-0.01593
0.04887
-0.01605
0.04997
0.05667
0.05639
0.07738
0.07758
0.05641
0.05685
0.07777
0.07714
-0.01551
-0.01671
0.05002
-0.01709
0.04986
-0.01552
-0.01672
0.04964
-0.01710
0.05015
0.05481
0.05589
0.07665
0.07594
0.05538
0.05491
0.07585
0.07661
-0.01443
-0.01599
0.04814
-0.01573
0.04843
-0.01412
-0.01564
0.04939
-0.01543
0.04841
-0.01894
-0.01920
-0.01912
-0.01801
0.08562
0.08444
-0.02148
-0.01600
0.08316
-0.01750
-0.02093
0.08683
-0.01894
-0.01947
0.08262
-0.01792
-0.01683
-0.01783
-0.01709
0.08547
0.08564
-0.01680
-0.01726
0.08517
-0.01727
-0.01737
0.08585
-0.01729
-0.01706
0.08537
-0.01907
-0.01657
-0.02044
-0.01423
0.08544
0.08448
-0.01675
-0.01735
0.08505
-0.01974
-0.01492
-0.01822
-0.01720
0.08570
0.08594
-0.01914
-0.01542
-0.01803
-0.01731
0.08531
0.08586
-0.01636
-0.01872
-0.01664
-0.01754
0.08486
0.08505
-0.01956
-0.01557
0.08532
-0.01636
-0.01848
-0.01650
-0.01758
0.08522
0.08505
-0.01867
-0.01700
0.08631
-0.01765
-0.01723
0.08608
-0.01700
-0.01681
0.08454
-0.01856
-0.01890
-0.01960
-0.01643
0.08623
0.08537
-0.01909
-0.01699
0.08469
-0.01651
-0.01756
0.08606
-0.01851
-0.01769
0.08384
-0.02133
-0.00384
-0.00105
-0.05538
0.07889
0.06710
-0.01012
-0.01189
0.07619
-0.01008
-0.02050
0.08699
0.01555
-0.06912
0.03676
0.04291
-0.10205
-0.01480
-0.01871
-0.01262
0.08139
0.00759
-0.07311
-0.01837
-0.01445
0.06644
0.08416
-0.01578
-0.01934
0.08288
-0.01717
-0.01733
-0.01719
-0.01705
0.08579
0.08544
-0.01727
-0.01717
0.08556
-0.01725
-0.01731
0.08578
-0.01734
-0.01703
0.08555
-0.01732
-0.01714
-0.01725
-0.01714
0.08558
0.08541
-0.01713
-0.01709
-0.01700
-0.01772
0.08530
0.08575
-0.01711
-0.01773
0.08584
-0.01759
-0.01749
-0.01848
-0.01867
0.08450
0.08503
-0.01752
-0.01737
0.08566
-0.01857
-0.01734
0.08467
-0.01736
-0.01697
0.08454
-0.01703
-0.01716
-0.01699
-0.01847
0.08361
0.08606
-0.01770
-0.01866
0.08527
-0.01860
-0.01691
0.08447
-0.01842
-0.01660
0.08523
0.04892
0.04760
0.04742
0.04805
0.04823
0.04717
0.05268
0.04783
0.04051
0.10754
-0.03577
-0.03131
0.04621
0.04528
0.04705
0.04806
0.04824
0.04872
0.04857
0.04822
0.04834
0.04828
0.04826
0.04838
0.05000
0.04981
0.04297
0.04848
0.04839
0.04812
0.04702
0.04756
0.04933
0.04809
0.04800
0.04879
0.04759
0.05125
0.04587
0.04898
0.04819
0.04633
0.04868
0.04834
0.04808
0.04740
0.04866
0.04876
0.09909
-0.01086
-0.02713
0.04796
0.04733
0.04720
0.04761
0.04684
0.04717
0.04881
0.04738
0.04827
-0.00014
0.37550
-0.29094
-0.01331
0.03972
-0.01274
-0.02656
-0.19871
-0.10044
-0.21010
0.03641
-0.14682
0.10421
-0.15736
0.10244
0.10904
-0.13143
0.05247
0.02977
0.00420
-0.09278
-0.16685
0.15883
-0.13228
-0.07518
-0.01948
0.21609
-0.14301
-0.14900
-0.04948
0.15097
0.08051
0.14829
-0.15716
-0.17353
-0.19881
0.11063
0.08442
0.00540
-0.00138
-0.07026
0.01327
0.02200
0.02642
0.25122
0.10730
-0.12814
0.18556
0.15008
-0.09405
0.06337
0.18888
-0.11041
0.17079
0.03644
-0.00308
-0.14571
0.14722
-0.13663
0.20720
-0.20271
0.02798
-0.08145
0.14741
-0.13176
0.31811
0.04198
0.24520
0.06348
-0.10168
-0.01527
0.12620
0.14090
0.06693
-0.04503
-0.06091
-0.10712
-0.10366
0.18699
0.36126
-0.20135
-0.04121
-0.20067
-0.01670
-0.01843
0.19492
-0.07260
0.02212
0.01156
-0.15871
-0.21025
0.03226
0.13234
-0.09847
-0.11339
0.18323
-0.16510
-0.12753
-0.16528
0.19122
-0.28075
0.04131
-0.12141
-0.03972
-0.05195
-0.01910
-0.09821
0.08532
-0.14668
-0.15599
-0.17222
-0.10670
-0.27063
-0.08792
-0.14106
0.04595
0.10000
