# vtk DataFile Version 3.0
Point representing Sub_cellular elem model
ASCII

DATASET UNSTRUCTURED_GRID
POINTS 781 float
0.01576 1.71107 0.46110 
0.00985 1.72384 -1.69535 
1.75278 1.05750 -0.62743 
1.75551 -1.09189 -0.63031 
0.01292 -1.75813 -1.70167 
0.01861 -1.75752 0.45068 
1.07672 -0.01985 1.12978 
-1.05413 -0.02366 1.13764 
1.08558 -0.01547 -2.36912 
-1.06723 -0.01651 -2.36116 
-1.72511 1.05593 -0.61344 
-1.72557 -1.09523 -0.62068 
0.01330 2.02954 -0.61667 
1.03688 1.63388 0.01327 
0.63907 0.99611 1.05758 
-0.61784 0.99677 1.06354 
-1.00782 1.63517 0.02166 
1.03727 1.64277 -1.25767 
0.64281 1.01073 -2.28453 
-0.62570 1.00984 -2.27943 
-1.01393 1.64114 -1.24896 
2.06521 -0.01668 -0.63112 
1.66416 0.61181 0.39864 
1.67218 0.61864 -1.65548 
1.04052 -1.67672 -1.26267 
1.04195 -1.67394 0.00687 
1.66792 -0.64856 0.39597 
1.67322 -0.65048 -1.65701 
0.01716 -2.06891 -0.62556 
0.64457 -1.04233 -2.28767 
-0.62413 -1.04289 -2.28351 
-1.01194 -1.67845 -1.25715 
0.64612 -1.04435 1.04366 
-0.61534 -1.04638 1.04415 
-1.00772 -1.67948 0.01000 
0.05112 0.64835 1.97719 
-1.63825 0.61193 0.41169 
-1.64058 -0.65382 0.40412 
0.00799 -0.01563 -2.67602 
-1.64917 0.61658 -1.64228 
-1.64869 -0.65201 -1.64560 
-2.03664 -0.01896 -0.61687 
0.01501 1.94412 -0.04464 
0.53650 1.74168 0.27683 
0.33618 1.41694 0.80511 
-0.30732 1.41847 0.80755 
-0.50583 1.74323 0.28111 
0.01143 1.95181 -1.18918 
0.53378 1.75387 -1.51600 
0.33243 1.43168 -2.03990 
-0.31453 1.43113 -2.03721 
-0.51272 1.75294 -1.51152 
1.45821 1.39620 -0.30096 
1.45948 1.40021 -0.94907 
1.98337 0.55378 -0.62972 
1.78015 0.87386 -0.10408 
1.78376 0.87839 -1.15214 
1.98484 -0.58743 -0.63120 
1.46253 -1.43433 -0.95304 
1.46239 -1.43280 -0.30541 
1.78347 -0.90951 -0.10680 
1.78547 -0.91124 -1.15435 
0.53705 -1.78787 -1.52185 
0.01501 -1.98814 -1.19684 
0.33498 -1.46433 -2.04468 
-0.31211 -1.46468 -2.04269 
-0.50988 -1.78869 -1.51893 
0.54099 -1.78547 0.26850 
0.01865 -1.98724 -0.05440 
0.33956 -1.46453 0.79451 
-0.30604 -1.46696 0.79442 
-0.50436 -1.78930 0.26951 
0.89996 0.50125 1.16471 
1.41874 0.30184 0.82260 
1.42192 -0.33928 0.81998 
0.90738 -0.54350 1.15518 
0.57209 -0.02492 1.40792 
-0.87928 0.49858 1.17793 
-0.87984 -0.54895 1.15637 
-0.54670 -0.02559 1.41710 
-1.39571 0.30048 0.83447 
-1.39734 -0.34385 0.82703 
0.90358 0.50814 -2.39758 
1.42870 0.30808 -2.07669 
1.42922 -0.33929 -2.07752 
0.90445 -0.53919 -2.39909 
0.57968 -0.01545 -2.59704 
-0.88629 0.50714 -2.39067 
-0.88557 -0.53997 -2.39284 
-0.56309 -0.01598 -2.59289 
-1.40848 0.30654 -2.06577 
-1.40814 -0.34060 -2.06727 
-1.43009 1.39593 -0.28915 
-1.43361 1.39836 -0.93707 
-1.75204 0.87339 -0.09023 
-1.75789 0.87614 -1.13792 
-1.95520 0.55188 -0.61483 
-1.43293 -1.43690 -0.94530 
-1.43069 -1.43760 -0.29910 
-1.75373 -0.91423 -0.09764 
-1.75766 -0.91328 -1.14325 
-1.95572 -0.59027 -0.61890 
0.56915 1.92611 -0.31341 
-0.54075 1.92638 -0.30870 
0.56809 1.93062 -0.92546 
-0.54333 1.92995 -0.92068 
0.90820 1.36375 0.58800 
1.06225 1.74083 -0.62216 
1.40114 1.17967 0.27667 
0.01008 1.02776 1.16615 
1.20780 0.87305 0.77443 
0.31527 0.52622 1.40509 
-0.88024 1.36660 0.59524 
-0.28779 0.52505 1.41353 
-1.18393 0.87449 0.78548 
-1.03545 1.74012 -0.61337 
-1.37349 1.18126 0.28809 
0.91007 1.37854 -1.82995 
1.40575 1.18970 -1.52693 
0.00811 1.03489 -2.38355 
1.21567 0.88484 -2.02140 
0.31342 0.54095 -2.57466 
-0.89025 1.37707 -1.82241 
-0.29763 0.54061 -2.57233 
-1.19608 0.88322 -2.01165 
-1.38301 1.18759 -1.51536 
1.95975 0.28712 -0.07376 
1.96410 0.28933 -1.18714 
1.96100 -0.32167 -0.07467 
1.96466 -0.32181 -1.18786 
1.76656 -0.01771 0.42008 
1.77446 -0.01585 -1.68141 
1.06643 -1.77738 -0.62795 
1.40789 -1.22219 -1.53012 
0.57209 -1.96701 -0.93238 
0.91253 -1.41095 -1.83405 
1.40654 -1.21876 0.27176 
0.57366 -1.96590 -0.32112 
0.91398 -1.40782 0.57999 
1.21441 -0.91443 0.76778 
1.21717 -0.91639 -2.02382 
-0.54039 -1.96855 -0.92985 
-0.53825 -1.96865 -0.31928 
0.00988 -1.06699 -2.38721 
0.31435 -0.57219 -2.57649 
-0.88827 -1.41192 -1.82851 
-0.29674 -0.57245 -2.57440 
-1.19497 -0.91746 -2.01574 
-1.03403 -1.78072 -0.62347 
-1.38185 -1.22369 -1.52148 
0.01398 -1.07533 1.14963 
0.32409 -0.58136 1.37600 
-0.88111 -1.41393 0.58144 
-0.28464 -0.57140 1.38232 
-1.18621 -0.92109 0.77042 
-1.37576 -1.22551 0.27654 
-1.74080 -0.02012 0.43185 
-1.93184 0.28553 -0.05987 
-1.93266 -0.32484 -0.06253 
-1.75077 -0.01762 -1.66827 
-1.93763 0.28719 -1.17240 
-1.93761 -0.32382 -1.17426 
0.01555 1.84378 0.21927 
0.27546 1.74286 0.37973 
0.17591 1.58083 0.64244 
-0.14499 1.58159 0.64369 
-0.24418 1.74381 0.38184 
0.01059 1.85450 -1.45345 
0.27100 1.75570 -1.61632 
0.17059 1.59514 -1.87752 
-0.15192 1.59485 -1.87617 
-0.25075 1.75522 -1.61409 
1.62273 1.23699 -0.46480 
1.62354 1.23881 -0.78780 
1.88459 0.81683 -0.62864 
1.78367 0.97637 -0.36654 
1.78531 0.97885 -0.88903 
1.88672 -0.85081 -0.63083 
1.62645 -1.27306 -0.79122 
1.62618 -1.27234 -0.46840 
1.78667 -1.01140 -0.36934 
1.78748 -1.01239 -0.89159 
0.27420 -1.78982 -1.62246 
0.01392 -1.88970 -1.46044 
0.17344 -1.62854 -1.88309 
-0.14913 -1.62874 -1.88213 
-0.24773 -1.79022 -1.62097 
0.27918 -1.78819 0.37033 
0.01888 -1.88872 0.20918 
0.17888 -1.62802 0.63212 
-0.14309 -1.62937 0.63217 
-0.24195 -1.79027 0.37071 
1.00389 0.23856 1.16166 
1.25880 0.13971 0.99067 
1.26059 -0.17788 0.98889 
1.00708 -0.27910 1.15743 
0.83668 -0.02126 1.27767 
-0.97974 0.23544 1.17524 
-0.98361 -0.28396 1.16092 
-0.81320 -0.02490 1.28538 
-1.23563 0.13757 1.00176 
-1.23745 -0.18182 0.99561 
1.00522 0.24559 -2.40025 
1.26700 0.14584 -2.24025 
1.26726 -0.17687 -2.24068 
1.00565 -0.27654 -2.40099 
0.84372 -0.01544 -2.49964 
-0.98750 0.24457 -2.39273 
-0.98717 -0.27743 -2.39382 
-0.82639 -0.01622 -2.49351 
-1.24785 0.14456 -2.23077 
-1.24767 -0.17806 -2.23147 
-1.59484 1.23597 -0.45174 
-1.59663 1.23705 -0.77464 
-1.75546 0.97531 -0.35251 
-1.75836 0.97681 -0.87481 
-1.85664 0.81509 -0.61400 
-1.59659 -1.27601 -0.78251 
-1.59544 -1.27636 -0.46034 
-1.75651 -1.01546 -0.35983 
-1.75843 -1.01496 -0.88114 
-1.85722 -0.85394 -0.61982 
0.01422 2.00697 -0.32609 
0.01235 2.01096 -0.90739 
0.29786 2.00284 -0.46937 
-0.27033 2.00284 -0.46692 
0.29711 2.00499 -0.76663 
-0.27146 2.00475 -0.76417 
0.79293 1.70516 0.15353 
1.26097 1.52993 -0.13989 
0.81733 1.80204 -0.14989 
0.99076 1.51405 0.31086 
1.05674 1.71229 -0.29982 
1.23009 1.42467 0.16035 
0.49340 1.22137 0.94414 
0.77714 0.75745 1.12963 
0.78878 1.19012 0.83850 
0.33362 1.02175 1.13649 
0.93405 0.95310 0.92974 
0.47422 0.77714 1.24463 
-0.46816 1.22320 0.94782 
-0.75710 0.75524 1.14053 
-0.31333 1.02194 1.13925 
-0.76342 1.19260 0.84494 
-0.45664 0.77472 1.25115 
-0.91119 0.95414 0.93909 
-0.76309 1.70683 0.15990 
-1.23249 1.53050 -0.12965 
-0.78836 1.80278 -0.14321 
-0.96168 1.51634 0.31880 
-1.02854 1.71249 -0.29118 
-1.20152 1.42631 0.17033 
0.79192 1.71601 -1.39530 
1.26214 1.53640 -1.10736 
0.81659 1.80890 -1.09183 
1.05683 1.71691 -0.94456 
0.99179 1.52647 -1.55475 
1.23242 1.43471 -1.40754 
0.49151 1.23498 -2.17712 
0.78160 0.76590 -2.35878 
0.79159 1.20570 -2.07565 
0.32998 1.02979 -2.35886 
0.93996 0.96587 -2.16858 
0.47829 0.78990 -2.45171 
-0.47414 1.23423 -2.17316 
-0.76452 0.76494 -2.35268 
-0.31354 1.02933 -2.35628 
-0.77327 1.20450 -2.06921 
-0.46202 0.78931 -2.44803 
-0.92178 0.96459 -2.16106 
-0.76980 1.71469 -1.38863 
-1.23751 1.53459 -1.09686 
-0.79262 1.80773 -1.08495 
-1.03170 1.71559 -0.93573 
-0.97024 1.52482 -1.54644 
-1.20949 1.43277 -1.39727 
2.04440 0.27310 -0.63058 
2.04515 -0.30654 -0.63132 
2.03783 0.13108 -0.34597 
2.03997 0.13189 -0.91577 
2.03832 -0.16499 -0.34638 
2.04029 -0.16478 -0.91612 
1.73997 0.75109 0.15365 
1.55569 0.46053 0.62368 
1.54788 0.90624 0.35579 
1.45366 0.75742 0.59665 
1.83397 0.45006 0.17606 
1.73982 0.30180 0.41592 
1.74579 0.75711 -1.41035 
1.56533 0.46736 -1.87990 
1.55455 0.91511 -1.60937 
1.46222 0.76698 -1.84950 
1.84040 0.45428 -1.43549 
1.74818 0.30608 -1.67556 
1.26530 -1.57042 -1.11186 
0.79521 -1.74995 -1.40076 
1.06053 -1.75203 -0.94998 
1.23512 -1.46781 -1.41163 
0.82028 -1.84397 -1.09778 
0.99461 -1.55953 -1.55929 
1.26575 -1.56813 -0.14529 
0.79791 -1.74713 0.14618 
1.06138 -1.75051 -0.30591 
1.23545 -1.46449 0.15462 
0.82211 -1.84201 -0.15692 
0.99624 -1.55606 0.30394 
1.74358 -0.78733 0.15098 
1.55935 -0.49767 0.62098 
1.83633 -0.48549 0.17445 
1.74186 -0.33759 0.41457 
1.55279 -0.94421 0.35191 
1.45894 -0.79613 0.59237 
1.74714 -0.78941 -1.41222 
1.56611 -0.49885 -1.88109 
1.84120 -0.48640 -1.43659 
1.74869 -0.33781 -1.67632 
1.55613 -0.94719 -1.61171 
1.46351 -0.79863 -1.85148 
0.01611 -2.04869 -0.91569 
0.01804 -2.04817 -0.33546 
0.30118 -2.04285 -0.77453 
0.30208 -2.04242 -0.47773 
-0.26803 -2.04381 -0.77335 
-0.26699 -2.04371 -0.47673 
0.49369 -1.26704 -2.18109 
0.78292 -0.79717 -2.36110 
0.79370 -1.23763 -2.07928 
0.94163 -0.99739 -2.17140 
0.33176 -1.06158 -2.36228 
0.47965 -0.82128 -2.45427 
-0.47212 -1.26750 -2.17802 
-0.76338 -0.79783 -2.35586 
-0.31184 -1.06186 -2.36018 
-0.77145 -1.23838 -2.07429 
-0.46076 -0.82168 -2.45111 
-0.92040 -0.99822 -2.16523 
-0.76732 -1.75123 -1.39649 
-1.23614 -1.57258 -1.10518 
-0.79017 -1.84572 -1.09378 
-0.96820 -1.56081 -1.55358 
-1.02991 -1.75443 -0.94491 
-1.20794 -1.46942 -1.40454 
0.49762 -1.26903 0.93261 
0.78579 -0.80304 1.11645 
0.79490 -1.23630 0.82835 
0.94142 -0.99777 0.91977 
0.33774 -1.06984 1.12137 
0.48336 -0.82754 1.22473 
-0.46624 -1.27163 0.93252 
-0.75600 -0.80696 1.11670 
-0.30825 -1.06959 1.12147 
-0.76342 -1.24107 0.82902 
-0.45081 -0.82498 1.22659 
-0.91190 -1.00325 0.92052 
-0.76234 -1.75216 0.14810 
-1.23286 -1.57354 -0.14068 
-0.78696 -1.84625 -0.15441 
-1.02770 -1.75496 -0.30209 
-0.96230 -1.56231 0.30627 
-1.20276 -1.47094 0.15842 
-0.03103 -0.52743 1.63175 
-0.19719 -0.52065 1.91157 
0.47517 0.07510 1.68030 
0.43145 -0.48601 2.26853 
-0.43524 -0.24228 1.64695 
-0.52422 -0.11019 1.89917 
-1.53141 0.46019 0.63619 
-1.71266 0.75109 0.16715 
-1.42875 0.75836 0.60897 
-1.52122 0.90729 0.36835 
-1.71423 0.30075 0.42866 
[...]
CELL_DATA 2335
SCALARS Strain double 
LOOKUP_TABLE default 
-0.08415
-0.09030
-0.08776
-0.08505
-0.09123
-0.08722
-0.08798
-0.08722
-0.08772
-0.08774
-0.08725
-0.08898
-0.08898
-0.08714
-0.08667
-0.08871
-0.08853
-0.08775
-0.08741
-0.08707
-0.08747
-0.08770
-0.08786
-0.08734
-0.08787
-0.08899
-0.08754
-0.08847
-0.08769
-0.08859
-0.10238
-0.07296
-0.06902
-0.10407
-0.06394
-0.09638
-0.10128
-0.06166
-0.07634
-0.06805
-0.08726
-0.08749
-0.08742
-0.08738
-0.08756
-0.08766
-0.08738
-0.08761
-0.08733
-0.08788
-0.08754
-0.08896
-0.08769
-0.08667
-0.08890
-0.08769
-0.08803
-0.08858
-0.08857
-0.08743
-0.03233
-0.03282
0.06753
0.06851
0.06882
0.06787
-0.03626
-0.03501
0.06605
0.07604
0.07362
0.06412
-0.03300
-0.05387
0.09131
0.05086
0.07686
0.10168
-0.02035
-0.03972
0.04512
0.08769
0.10360
0.06737
-0.03697
-0.03588
0.06780
0.07345
0.07211
0.06679
-0.03487
-0.03506
0.06969
0.07028
0.06991
0.06982
-0.03366
-0.03367
0.06956
0.06941
0.06943
0.06956
-0.03424
-0.03424
0.06932
0.06998
0.06992
0.06925
-0.03483
-0.03505
0.06878
0.07056
0.07034
0.06894
-0.03540
-0.03535
0.07012
0.06933
0.06963
0.06956
-0.03111
-0.03035
0.06057
0.07441
0.07346
0.06100
-0.03386
-0.03396
0.06996
0.06929
0.06918
0.07002
-0.03449
-0.03429
0.06989
0.06916
0.06895
0.06978
-0.03530
-0.03590
0.07108
0.06624
0.06764
0.07189
-0.03203
-0.03100
0.07081
0.06301
0.06351
0.07081
-0.03384
-0.03390
0.06926
0.06983
0.06965
0.06938
-0.03438
-0.03439
0.06832
0.06932
0.06967
0.06823
-0.03421
-0.03412
0.06972
0.06957
0.06956
0.06973
-0.03384
-0.03386
0.06947
0.06912
0.06921
0.06947
-0.03458
-0.03452
0.06993
0.06877
0.06857
0.06982
-0.03282
-0.04328
0.07755
0.07439
0.05920
0.08239
-0.02961
-0.04715
0.05419
0.08152
0.09798
0.07631
-0.03453
-0.03423
0.06849
0.06809
0.06847
0.06840
-0.03326
0.16186
0.24720
0.16774
0.13491
-0.03294
-0.03375
0.07196
0.06454
0.06500
0.07209
-0.03383
-0.03489
0.06705
0.06950
0.06882
0.06684
-0.03415
-0.03415
0.06953
0.06981
0.06979
0.06946
-0.03358
-0.03345
0.06877
0.06916
0.06930
0.06856
-0.03479
-0.03490
0.06955
0.06966
0.06964
0.06955
-0.03476
-0.03443
0.07008
0.06756
0.06789
0.06976
-0.06261
-0.04258
0.07682
0.07833
0.03247
0.03145
-0.06844
-0.04757
0.07652
0.08611
0.03841
0.03062
-0.06681
-0.04758
0.08799
0.07422
0.02966
0.04313
-0.06207
-0.03963
0.07389
0.08370
0.03637
0.02858
-0.06914
-0.04815
0.07857
0.08347
0.03696
0.03353
-0.06502
-0.04405
0.07975
0.07895
0.03306
0.03372
-0.06613
-0.04558
0.08004
0.07998
0.03458
0.03452
-0.06518
-0.04449
0.07983
0.07957
0.03391
0.03412
-0.06576
-0.04508
0.07956
0.08032
0.03458
0.03387
-0.06594
-0.04546
0.07920
0.08044
0.03490
0.03373
-0.06531
-0.04504
0.08201
0.07559
0.03106
0.03742
-0.06699
-0.04612
0.08108
0.07981
0.03420
0.03488
-0.06712
-0.04635
0.08115
0.07922
0.03405
0.03481
-0.06443
-0.04286
0.07494
0.08173
0.03599
0.02946
-0.06496
-0.04452
0.07974
0.07901
0.03346
0.03412
-0.06686
-0.04618
0.08038
0.07938
0.03419
0.03443
-0.06646
-0.04556
0.08050
0.07938
0.03363
0.03461
-0.06599
-0.04568
0.08092
0.07706
0.03225
0.03563
-0.06498
-0.04367
0.08051
0.07641
0.03058
0.03455
-0.06518
-0.04460
0.07923
0.07948
0.03398
0.03370
-0.06554
-0.04497
0.07926
0.07993
0.03422
0.03377
-0.06580
-0.04518
0.07910
0.08012
0.03423
0.03334
-0.06585
-0.04512
0.07997
0.07980
0.03420
0.03435
-0.06532
-0.04466
0.07972
0.07940
0.03382
0.03398
-0.06602
-0.04541
0.08021
0.07934
0.03362
0.03449
-0.06729
-0.04676
0.07827
0.08118
0.03495
0.03186
-0.06576
-0.04520
0.07898
0.07829
0.03258
0.03383
-0.06733
-0.04771
0.08201
0.07758
0.03266
0.03703
-0.06535
-0.04411
0.07732
0.07998
0.03507
0.03201
-0.06624
-0.04539
0.07838
0.07916
0.03312
0.03308
-0.06200
-0.04955
0.08937
0.07195
0.03733
0.04033
-0.06027
-0.04060
0.08705
0.06940
0.02474
0.04099
-0.05740
-0.04018
0.07041
0.07957
0.03603
0.02848
-0.06181
-0.03979
0.07874
0.07924
0.03421
0.02711
-0.02080
-0.20174
0.14453
0.14021
0.02539
0.02592
-0.06480
-0.04812
0.08631
0.08626
0.04595
0.04425
-0.05506
-0.04074
0.07726
0.08086
0.03848
0.03449
-0.01304
0.13071
0.16035
0.02655
0.02614
-0.06005
-0.04215
0.08499
0.07298
0.02864
0.03950
-0.05953
-0.04266
0.07671
0.07769
0.03492
0.03159
-0.06522
-0.04452
0.07979
0.07992
0.03423
0.03411
-0.06552
-0.04484
0.07980
0.08028
0.03463
0.03414
-0.06544
-0.04476
0.08020
0.07980
0.03411
0.03441
-0.06546
-0.04487
0.07983
0.08005
0.03436
0.03418
-0.06561
-0.04496
0.07993
0.08010
0.03445
0.03422
-0.06571
-0.04506
0.08016
0.07953
0.03399
0.03454
-0.06538
-0.04470
0.07952
0.07986
0.03413
0.03377
-0.06565
-0.04499
0.08011
0.07962
0.03405
0.03441
-0.06527
-0.04452
0.07938
0.07979
0.03399
0.03355
-0.06605
-0.04550
0.07994
0.07991
0.03431
0.03435
-0.06588
-0.04582
0.08132
0.07680
0.03194
0.03601
-0.06696
-0.04610
0.08103
0.07912
0.03345
0.03512
-0.06572
-0.04494
0.07645
0.08127
0.03511
0.03120
-0.06470
-0.04415
0.07912
0.07851
0.03303
0.03352
-0.06689
-0.04595
0.08106
0.07839
0.03261
0.03497
-0.06581
-0.04526
0.07845
0.07991
0.03431
0.03312
-0.06599
-0.04517
0.07816
0.07978
0.03365
0.03231
-0.06684
-0.04615
0.08007
0.07813
0.03264
0.03419
-0.06659
-0.04584
0.07989
0.07956
0.03401
0.03426
-0.06550
-0.04500
0.07817
0.07947
0.03377
0.03271
0.06969
0.06927
0.01902
0.02341
0.01928
0.01618
0.07075
0.07054
0.01822
0.02262
0.01896
0.01544
0.07166
0.07196
0.01917
0.02124
0.01857
0.01577
0.07073
0.07103
0.01975
0.02144
0.01858
0.01632
0.08201
0.08683
0.01602
0.01520
0.01690
0.00703
0.07453
0.07346
0.01812
0.02024
0.01660
0.01547
0.06458
0.06323
0.02540
0.02219
0.01840
0.02412
0.07888
0.07760
0.03000
0.02019
0.01640
0.02598
0.07821
0.07798
0.02820
0.00906
0.00538
0.02552
0.12085
-0.11810
0.06559
0.02548
0.09616
0.02489
0.08232
0.07825
0.01326
0.02087
0.01439
0.01421
0.13666
-0.06533
0.07545
0.02575
0.09096
0.02526
0.07238
0.07366
0.02882
0.01536
0.01259
0.02344
0.07387
0.07340
0.01883
0.01946
0.01584
0.01605
0.06805
0.06722
0.02321
0.02067
0.01627
0.02148
0.07222
0.07211
0.02089
0.02021
0.01698
0.01774
0.07238
0.07242
0.02088
0.01993
0.01688
0.01753
0.07189
0.07187
0.02043
0.02087
0.01767
0.01726
0.07193
0.07188
0.02056
0.02094
0.01776
0.01743
0.07208
0.07207
0.02040
0.02079
0.01764
0.01720
0.07258
0.07269
0.02008
0.02012
0.01698
0.01675
0.07238
0.07235
0.02034
0.02041
0.01725
0.01719
0.07163
0.07147
0.02093
0.02023
0.01701
0.01785
0.07152
0.07158
0.02127
0.01956
0.01658
0.01796
0.07351
0.07466
0.02077
0.01613
0.01331
0.01798
0.07166
0.07163
0.02071
0.02050
0.01737
0.01732
0.07251
0.07292
0.02109
0.01684
0.01356
0.01875
0.07180
0.07172
0.02054
0.02043
0.01734
0.01726
0.06458
0.06534
0.02479
0.02170
0.01830
0.01992
0.07254
0.07247
0.02042
0.02040
0.01723
0.01723
0.07264
0.07303
0.01964
0.01920
0.01652
0.01610
0.07183
0.07199
0.02081
0.02018
0.01714
0.01757
0.07120
0.07098
0.02058
0.02032
0.01687
0.01749
0.07225
0.07223
0.02022
0.02049
0.01725
0.01718
0.06746
0.06650
0.02255
0.02066
0.01720
0.01995
0.07087
0.07140
0.02100
0.01893
0.01586
0.01763
0.07554
0.07726
0.01743
0.01780
0.01692
0.01105
0.07355
0.07363
0.01482
0.02235
0.02006
0.01137
0.07198
0.07205
0.02060
0.02068
0.01753
0.01730
0.07241
0.07249
0.01959
0.01980
0.01647
0.01640
0.07070
0.07080
0.02054
0.01939
0.01631
0.01755
0.07204
0.07200
0.02069
0.02022
0.01713
0.01753
0.07226
0.07228
0.02048
0.02046
0.01721
0.01728
0.07153
0.07142
0.02027
0.02076
0.01753
0.01710
0.07180
0.07189
0.02044
0.02072
0.01753
0.01726
0.07200
0.07203
0.02000
0.02065
0.01749
0.01673
0.07083
0.07063
0.02073
0.01974
0.01647
0.01758
0.07225
0.07219
0.01964
0.02033
0.01713
0.01661
0.07917
0.07405
0.02428
0.02174
0.01578
0.02293
0.09538
0.18999
0.05271
0.02492
0.06799
0.02489
0.07595
0.07237
0.01753
0.01998
0.01418
0.01707
0.13157
-0.13477
0.08313
0.02557
0.07758
0.02532
0.07338
0.07100
0.02033
0.02024
0.01562
0.01626
0.07130
0.07181
0.01854
0.01930
0.01663
0.01560
0.06900
0.07027
0.02326
0.01786
0.01475
0.01857
0.07384
0.07312
0.01821
0.01858
0.01502
0.01576
0.06945
0.06971
0.02010
0.02030
0.01764
0.01640
0.07196
0.07208
0.01970
0.02071
0.01761
0.01637
0.07086
0.07064
0.02003
0.02104
0.01771
0.01706
0.07207
0.07213
0.02053
0.01922
0.01621
0.01723
0.06804
0.07008
-0.00793
-0.00904
0.07677
-0.00165
-0.00812
0.06542
-0.00985
0.00034
0.07439
-0.00435
-0.01060
-0.00257
-0.00520
0.07119
0.07051
-0.00648
-0.00601
0.07113
-0.00537
-0.00538
0.07074
-0.00609
-0.00583
0.07156
-0.00532
-0.00601
-0.00517
-0.00606
0.07239
0.06801
-0.00808
-0.00402
0.07066
-0.00566
-0.00487
0.07239
0.07024
-0.00568
-0.00487
-0.00480
-0.00868
-0.00678
-0.00638
0.07159
0.07044
-0.00574
-0.00530
0.07178
0.07044
-0.00618
-0.00522
0.06893
-0.00726
-0.00490
-0.00801
-0.00569
-0.00638
-0.00644
0.07055
0.07115
-0.00578
-0.00611
0.07136
-0.00563
-0.00631
0.07096
-0.00570
-0.00553
0.07069
-0.00608
-0.00599
-0.00608
-0.00544
0.06983
0.07196
-0.00535
-0.00753
0.06974
-0.00733
-0.00643
0.06899
-0.00759
-0.00439
0.07078
-0.00625
-0.00726
-0.00630
-0.00666
0.07061
0.09574
-0.00640
-0.01944
0.05444
-0.00988
0.00110
0.06510
-0.00363
-0.00907
0.10100
-0.00248
-0.02342
-0.03262
-0.03485
0.08927
0.07659
-0.00481
0.00195
0.10934
0.06137
-0.02545
-0.00471
-0.01999
-0.03399
0.06062
-0.01017
0.00263
-0.00194
-0.00826
0.07108
0.07119
-0.00566
-0.00576
0.07141
-0.00534
-0.00566
0.07105
-0.00572
-0.00551
0.07132
-0.00555
-0.00574
-0.00544
-0.00562
0.07135
0.07076
-0.00588
-0.00541
0.07079
0.07116
-0.00577
-0.00611
-0.00588
-0.00550
0.07110
-0.00586
-0.00620
-0.00558
-0.00551
0.07207
0.06857
-0.00770
-0.00495
0.07028
-0.00621
-0.00476
0.07218
-0.00527
-0.00793
0.06982
-0.00704
-0.00670
-0.00669
-0.00479
0.06963
0.07102
-0.00585
-0.00685
0.07126
-0.00597
-0.00731
0.06980
-0.00672
-0.00560
0.07057
-0.00594
-0.00563
-0.00653
-0.00700
0.05515
0.05417
0.07473
0.07591
0.05480
0.05563
0.07691
0.07602
-0.01306
-0.01380
0.04879
-0.01311
-0.01404
0.04791
-0.01497
0.04786
-0.01490
0.04866
0.06058
0.05205
0.07385
0.08364
0.05273
0.06124
0.08043
0.07216
-0.01595
-0.01782
0.05244
-0.01555
-0.01922
0.04207
-0.01659
0.04708
-0.01581
0.05697
0.04666
0.06231
0.08683
0.07389
0.06476
0.07771
0.08700
0.06970
-0.02860
-0.01930
0.05122
0.00314
-0.01774
0.03811
-0.02774
0.06113
-0.04461
0.01215
0.05577
0.04306
0.07243
0.08114
0.06496
0.07009
0.09038
0.08099
0.01888
-0.00556
0.03412
-0.01756
-0.01131
0.04600
-0.03437
0.00963
-0.02025
0.05995
0.05892
0.05498
0.07576
0.08079
0.05415
0.05929
0.07934
0.07410
-0.01661
-0.01844
0.05160
-0.01695
-0.02029
0.04665
-0.01732
0.04811
-0.01700
0.05419
0.05686
0.05666
0.07747
0.07751
0.05641
0.05686
0.07827
0.07744
-0.01584
-0.01703
0.05067
-0.01753
0.04946
-0.01517
-0.01645
0.05005
-0.01671
0.04994
0.05616
0.05632
0.07727
0.07708
0.05638
0.05624
0.07720
0.07732
-0.01414
-0.01555
0.04948
-0.01420
-0.01558
0.04966
-0.01554
0.04973
-0.01562
0.04955
0.05673
0.05604
0.07703
0.07774
0.05613
0.05674
0.07762
0.07697
-0.01468
-0.01608
0.05002
-0.01481
-0.01623
0.04925
-0.01608
0.04950
-0.01619
0.05016
0.05720
0.05580
0.07657
0.07797
0.05555
0.05722
0.07842
0.07661
-0.01556
-0.01672
0.05080
-0.01723
0.04860
-0.01532
-0.01653
0.04921
-0.01691
0.05038
0.05624
0.05667
0.07826
0.07684
0.05656
0.05636
0.07761
0.07702
-0.01702
-0.01858
0.04993
-0.01505
-0.01649
0.04964
-0.01833
0.05062
-0.01647
0.04950
0.05946
0.04967
0.07030
0.08001
0.04613
0.06171
0.08400
0.06733
-0.00930
-0.01186
0.05307
-0.01039
0.03884
-0.01299
-0.01481
0.04365
-0.01426
0.05312
0.05589
0.05664
0.07749
0.07667
0.05681
0.05616
0.07715
0.07778
-0.01440
-0.01567
0.04935
-0.01587
0.05011
-0.01451
-0.01578
0.05002
-0.01596
0.04944
0.05575
0.05667
0.07779
0.07688
0.05652
0.05594
0.07668
0.07742
-0.01503
-0.01674
0.04878
-0.01477
-0.01633
0.04993
-0.01619
0.04998
-0.01604
0.04943
0.05423
0.05828
0.07865
0.07409
0.05753
0.05371
0.07552
0.07900
-0.01611
-0.01706
0.04841
-0.01564
-0.01658
0.05228
-0.01768
0.05047
-0.01805
0.04494
0.05126
0.05717
0.07820
0.07246
0.05794
0.04979
0.06943
0.07850
-0.01256
-0.01481
0.04451
-0.01286
0.05072
-0.01200
-0.01398
0.05049
-0.01312
0.04332
0.05645
0.05604
0.07683
0.07719
0.05618
0.05654
0.07763
0.07719
-0.01450
-0.01583
0.04993
-0.01591
0.04947
-0.01434
-0.01567
0.04951
-0.01577
0.04972
0.05629
0.05526
0.07630
0.07751
0.05489
0.05627
0.07678
0.07578
-0.01460
-0.01604
0.04930
-0.01591
0.04833
-0.01520
-0.01650
0.04853
-0.01666
0.04992
0.05637
0.05652
0.07743
0.07728
0.05652
0.05635
0.07729
0.07747
-0.01465
-0.01615
0.04967
-0.01595
0.04986
-0.01469
-0.01617
0.04987
-0.01600
0.04966
0.05599
0.05621
0.07717
0.07683
0.05628
0.05592
0.07694
0.07725
-0.01435
-0.01575
0.04941
-0.01436
-0.01573
0.04954
-0.01575
0.04962
-0.01578
0.04917
0.05557
0.05665
0.07768
0.07665
0.05663
0.05541
0.07608
0.07747
-0.01525
-0.01667
0.04871
-0.01490
-0.01632
0.04991
-0.01657
0.05005
-0.01624
0.04893
0.05157
0.05442
0.07905
0.07737
0.05421
0.06958
0.07794
0.06296
-0.02229
-0.01842
0.05090
-0.01929
0.05180
-0.00066
-0.01770
0.03474
-0.02956
0.02729
0.05765
0.04967
0.07468
0.07841
0.07860
0.05681
0.06978
0.08135
0.00268
-0.01266
0.04349
-0.02084
-0.01521
0.05098
-0.04400
0.01641
-0.01717
0.05016
0.05498
0.05538
0.07597
0.07622
0.05544
0.05456
0.07557
0.07673
-0.01456
-0.01601
0.04833
-0.01588
0.04868
-0.01497
-0.01728
0.04794
-0.01651
0.04815
-0.02334
-0.14560
0.01567
-0.04410
-0.02001
-0.10335
0.55135
0.10302
-0.13308
-0.05886
-0.12157
0.08183
0.05085
0.05989
0.08081
0.07178
0.05790
0.05259
0.07303
0.07916
-0.01161
-0.01140
0.04435
-0.01415
0.05038
-0.01613
-0.01756
0.05183
-0.01736
0.04695
0.05628
0.05345
0.07463
0.07595
0.05425
0.05607
0.07740
0.07504
-0.01587
-0.01647
0.04921
-0.01767
0.04827
-0.01432
-0.01436
0.04681
-0.01646
0.04873
0.05660
0.05632
0.07731
0.07753
0.05626
0.05658
0.07754
0.07712
-0.01467
-0.01605
0.04996
-0.01608
0.04964
-0.01463
-0.01601
0.04957
-0.01603
0.04990
0.05607
0.05554
0.07666
0.07714
0.05538
0.05593
0.07673
0.07609
-0.01399
-0.01549
0.04932
-0.01526
0.04892
-0.01411
-0.01561
0.04869
-0.01538
0.04944
0.05646
0.05644
0.07734
0.07736
0.05626
0.05643
0.07737
0.07716
-0.01527
-0.01655
0.04982
-0.01678
0.04958
-0.01546
-0.01672
0.04980
-0.01698
0.04971
0.05444
0.05687
0.07824
0.07567
0.05639
0.05473
0.07537
0.07717
-0.01539
-0.01727
0.04738
-0.01637
0.05012
-0.01488
-0.01653
0.04998
-0.01606
0.04830
-0.01416
-0.01931
-0.01467
-0.02005
0.08266
0.08410
-0.02073
-0.02042
0.09412
-0.01745
-0.00964
0.08227
-0.01572
-0.02146
0.08988
-0.01655
-0.01807
-0.01640
-0.01770
0.08557
0.08465
-0.01758
-0.01677
0.08569
-0.01678
-0.01728
0.08539
-0.01745
-0.01757
0.08618
-0.01729
-0.01910
-0.01645
-0.01439
0.08748
0.07914
-0.01809
-0.01666
0.08580
-0.01999
-0.01656
-0.01778
-0.01673
0.08750
0.08501
-0.01950
-0.01668
-0.01774
-0.01693
0.08630
0.08516
-0.01830
-0.01787
-0.01772
-0.01679
0.08649
0.08537
-0.01741
-0.01584
0.08141
-0.01721
-0.01726
-0.01716
-0.01745
0.08480
0.08576
-0.01760
-0.01784
0.08601
-0.01745
-0.01695
0.08556
-0.01690
-0.01750
0.08508
-0.01887
-0.01699
-0.01898
-0.01996
0.08455
0.08774
-0.01787
-0.01742
0.08412
-0.01805
-0.01498
0.08370
-0.01766
-0.01837
0.08538
-0.02576
-0.01317
0.01790
-0.08115
0.09443
0.03220
-0.01574
-0.01258
0.07738
-0.01435
-0.01978
0.08701
0.01829
-0.07672
0.03739
-0.00219
-0.04560
-0.02129
-0.01062
0.05932
0.08875
0.02541
-0.08057
-0.01554
-0.01675
0.03105
0.08572
-0.01883
-0.01339
0.08253
-0.01676
-0.01710
-0.01685
-0.01723
0.08553
0.08567
-0.01718
-0.01712
0.08608
-0.01700
-0.01705
0.08559
-0.01713
-0.01720
0.08584
-0.01729
-0.01729
-0.01736
-0.01679
0.08592
0.08517
-0.01696
-0.01723
-0.01700
-0.01766
0.08537
0.08563
-0.01689
-0.01779
0.08562
-0.01796
-0.01876
-0.01730
-0.01606
0.08713
0.08160
-0.01831
-0.01633
0.08500
-0.01832
-0.01897
0.08711
-0.01642
-0.01798
0.08422
-0.01763
-0.01718
-0.01739
-0.01812
0.08412
0.08573
-0.01797
-0.01892
0.08554
-0.01796
-0.01725
0.08347
-0.01832
-0.01712
0.08547
0.04629
0.04787
0.05013
0.04714
0.04701
0.04989
0.05832
0.03847
0.05139
0.10159
-0.03027
-0.01579
0.05536
0.04764
0.04384
0.04854
0.04883
0.04817
0.04827
0.04840
0.04873
0.04900
0.04784
0.04800
0.05041
0.04906
0.04295
0.04817
0.04823
0.04875
0.04892
0.04726
0.04766
0.04832
0.04862
0.04835
0.04262
0.05139
0.04916
0.04879
0.04730
0.04724
0.04838
0.04863
0.04823
0.04780
0.04830
0.04859
0.08949
-0.01003
-0.00368
0.04769
0.04815
0.04721
0.04667
0.04954
0.04576
0.04834
0.04724
0.04861
-0.10974
-0.21080
0.05629
0.03573
-0.00965
-0.01772
-0.08135
0.11802
-0.07349
0.05287
-0.03644
-0.03129
-0.03011
0.07682
-0.03289
-0.12923
0.16716
-0.13121
0.08071
-0.11985
0.23466
-0.11911
-0.05225
-0.10860
0.25317
0.11213
0.10435
0.02493
-0.04487
-0.25156
0.19604
-0.06271
0.06771
0.01057
0.11250
-0.08231
0.62984
0.02513
-0.09535
-0.09570
-0.14202
-0.19349
-0.07942
0.19506
0.13823
-0.09124
0.16801
0.10192
0.12496
-0.01919
-0.05420
-0.13244
0.02438
0.08741
-0.07181
0.05170
0.01372
0.02702
0.05958
-0.00699
-0.03621
-0.23064
-0.15578
0.11779
-0.02788
0.02619
0.11008
-0.02434
-0.01787
0.01957
-0.10151
0.02761
-0.10148
0.04167
0.08643
0.07580
0.10298
0.15282
-0.06092
-0.08516
0.15913
0.02976
-0.00211
0.02695
-0.07812
0.01960
0.04819
0.04044
-0.15397
-0.02453
0.35638
-0.15396
0.01398
-0.00356
0.06716
-0.00125
0.24150
0.18356
-0.08888
-0.05514
-0.08820
-0.05990
0.01326
0.08495
-0.00491
0.15381
0.28156
-0.13869
0.08807
0.06735
-0.02757
-0.11100
0.05870
-0.02144
0.10626
0.13829
0.20089
-0.08719
-0.04203
-0.08473
0.05721
0.02172
0.05981
-0.00471
0.12836
-0.00218
0.07193
0.13203
-0.00398
-0.10140
0.17376
-0.11383
0.05050
0.05762
0.02330
0.31795
0.02414
0.03200
0.08327
0.00797
0.04124
-0.05571
0.06440
-0.06958
0.17036
-0.17352
-0.04346
-0.05654
0.14500
-0.09328
-0.01700
-0.07538
-0.01182
-0.11292
0.08979
0.18341
0.07300
-0.03783
-0.01323
0.14093
-0.09930
0.08089
0.08789
0.26784
0.14320
-0.13335
0.15029
0.07010
-0.01157
0.18687
0.04744
0.23480
0.10737
0.16260
0.03869
-0.10163
0.01508
-0.07727
0.03136
0.06500
-0.09105
0.02024
-0.03689
-0.00215
-0.03705
-0.04828
0.00745
0.15847
0.02730
-0.01506
-0.02568
-0.02393
-0.01915
0.01370
0.00207
-0.00093
-0.09212
-0.05766
-0.00383
0.00504
-0.10668
0.25560
0.08514
0.13335
0.10295
0.08069
0.10330
-0.05931
0.28547
0.04910
-0.00917
-0.04024
-0.04338
-0.04823
0.00239
-0.05814
0.11104
-0.04116
0.00890
0.15607
-0.11476
-0.13782
-0.08053
0.01479
0.56705
-0.04513
0.09966
0.11142
0.03912
0.03114
-0.06209
0.06510
0.12150
-0.13160
0.10467
0.14050
0.11220
-0.02701
-0.09125
0.23820
-0.06176
-0.06298
0.02348
0.17302
-0.04444
0.04143
0.13134
0.14921
0.05290
-0.06352
-0.11130
0.16424
-0.02450
-0.01017
-0.11133
0.01039
-0.01109
-0.03759
0.00700
0.05197
0.28832
-0.07256
0.18219
0.03957
0.01605
0.02129
-0.09868
0.08122
0.00860
0.16113
-0.06745
-0.05988
-0.19678
0.14310
-0.06115
0.04483
0.06949
0.02116
-0.22081
0.21125
0.04829
0.11662
0.06831
-0.08592
0.07087
0.03230
-0.01772
-0.09913
-0.00476
-0.11206
0.11439
0.11261
0.04458
-0.02234
-0.02272
0.05644
-0.02970
0.03009
-0.22959
0.33556
0.02356
0.23664
0.28534
0.26876
0.02476
0.22731
-0.08878
-0.02133
0.11884
0.05692
0.17954
-0.12561
-0.03923
-0.02180
-0.12076
0.20919
-0.16619
-0.15698
0.21966
0.13250
0.06675
0.00308
0.12653
0.19044
0.30864
0.10355
-0.12283
0.15452
0.01162
0.01958
0.42912
-0.06163
-0.02710
0.01287
-0.07205
0.18984
0.29786
0.47271
0.19250
-0.07078
0.00018
0.16013
-0.08954
0.10007
-0.03038
-0.12086
-0.07242
-0.10226
-0.12320
0.22534
-0.12975
-0.07082
-0.07547
0.04518
0.09602
-0.00907
-0.18641
0.15496
-0.07655
0.03506
0.09124
-0.00919
0.15512
-0.24085
-0.17797
0.06072
-0.10618
0.04438
-0.01635
0.01140
0.01492
0.08538
-0.07332
-0.16491
0.09315
-0.10097
0.02852
-0.15202
0.03770
-0.04331
-0.01309
0.01471
0.02771
0.05151
-0.16750
0.30948
-0.05888
0.01122
-0.08546
0.03951
-0.09773
-0.06774
-0.07835
-0.05482
-0.10081
-0.00124
-0.09883
-0.01460
-0.03796
-0.11273
-0.05980
-0.10623
-0.10480
0.00807
-0.07532
0.01797
-0.08730
-0.12669
-0.10553
-0.13208
-0.21279
-0.02266
-0.22671
0.01296
-0.18454
-0.00823
-0.18276
-0.04910
-0.22215
-0.05210
-0.20294
-0.05908
0.10000
