# vtk DataFile Version 3.0
Point representing Sub_cellular elem model
ASCII

DATASET UNSTRUCTURED_GRID
POINTS 650 float
-0.00093 1.73660 1.04990 
0.00103 1.74087 -1.10421 
1.74079 1.07600 -0.02584 
1.74129 -1.07536 -0.02442 
0.00124 -1.74264 -1.10178 
-0.00073 -1.73719 1.05053 
1.07469 0.00088 1.72835 
-1.07692 -0.00174 1.72792 
1.07824 -0.00135 -1.76732 
-1.07491 -0.00151 -1.76881 
-1.74135 1.07559 -0.02900 
-1.74109 -1.07601 -0.02744 
0.00013 2.05088 -0.02763 
1.02357 1.65768 0.60859 
0.62681 1.02097 1.64326 
-0.63880 1.02473 1.63643 
-1.02577 1.65888 0.60546 
1.02707 1.66011 -0.66125 
0.63600 1.02526 -1.68748 
-0.63295 1.02512 -1.68831 
-1.02586 1.65995 -0.66299 
2.05229 0.00051 -0.02519 
1.65642 0.63465 1.00135 
1.66219 0.63379 -1.05249 
1.02723 -1.66090 -0.65891 
1.02531 -1.65738 0.60971 
1.65822 -0.63142 1.00210 
1.66222 -0.63514 -1.05153 
0.00013 -2.05114 -0.02501 
0.63615 -1.02788 -1.68604 
-0.63279 -1.02799 -1.68705 
-1.02568 -1.66117 -0.66077 
0.63548 -1.02399 1.64029 
-0.63603 -1.02472 1.64030 
-1.02617 -1.65786 0.60799 
0.20488 -0.20697 2.17674 
-1.66134 0.63341 0.99749 
-1.66020 -0.63330 0.99960 
0.00189 -0.00165 -2.07876 
-1.66014 0.63340 -1.05494 
-1.66007 -0.63549 -1.05422 
-2.05246 -0.00041 -0.02868 
-0.00035 1.96800 0.54415 
0.52128 1.76689 0.86905 
0.31997 1.44220 1.39473 
-0.32464 1.44380 1.39263 
-0.52316 1.76820 0.86710 
0.00061 1.97077 -0.59928 
0.52450 1.77101 -0.92243 
0.32496 1.44721 -1.44588 
-0.32233 1.44713 -1.44633 
-0.52275 1.77092 -0.92325 
1.44608 1.41725 0.29767 
1.44816 1.41796 -0.34989 
1.97098 0.57154 -0.02550 
1.76892 0.89471 0.49806 
1.77232 0.89474 -0.54955 
1.97128 -0.57064 -0.02478 
1.44846 -1.41809 -0.34794 
1.44722 -1.41640 0.29927 
1.77014 -0.89280 0.49905 
1.77242 -0.89508 -0.54825 
0.52466 -1.77235 -0.91990 
0.00075 -1.97170 -0.59654 
0.32515 -1.44949 -1.44386 
-0.32211 -1.44956 -1.44442 
-0.52255 -1.77249 -0.92085 
0.52259 -1.76751 0.86956 
-0.00046 -1.96808 0.54605 
0.32345 -1.44484 1.39300 
-0.32453 -1.44518 1.39272 
-0.52387 -1.76774 0.86877 
0.89607 0.52541 1.75399 
1.41566 0.32437 1.42499 
1.41645 -0.32101 1.42616 
0.89769 -0.52294 1.75678 
0.56558 -0.00361 1.98534 
-0.90653 0.52340 1.74933 
-0.89957 -0.52434 1.75576 
-0.56035 -0.00022 1.98624 
-1.42175 0.32165 1.42188 
-1.41960 -0.32331 1.42431 
0.89678 0.52224 -1.79782 
1.42029 0.32256 -1.47406 
1.42032 -0.32471 -1.47358 
0.89686 -0.52500 -1.79708 
0.57330 -0.00155 -1.99739 
-0.89348 0.52209 -1.79900 
-0.89340 -0.52513 -1.79839 
-0.56962 -0.00163 -1.99815 
-1.41746 0.32230 -1.47606 
-1.41743 -0.32496 -1.47570 
-1.44771 1.41746 0.29442 
-1.44778 1.41771 -0.35248 
-1.77143 0.89416 0.49442 
-1.77138 0.89425 -0.55240 
-1.97140 0.57079 -0.02894 
-1.44757 -1.41850 -0.35052 
-1.44756 -1.41702 0.29675 
-1.77098 -0.89393 0.49610 
-1.77121 -0.89558 -0.55128 
-1.97120 -0.57148 -0.02814 
0.55557 1.94850 0.27882 
-0.55607 1.94905 0.27735 
0.55668 1.95009 -0.33277 
-0.55599 1.95018 -0.33387 
0.89498 1.39047 1.18207 
1.05016 1.76097 -0.02647 
1.39030 1.20431 0.87513 
-0.00456 1.04734 1.74327 
1.20049 0.89983 1.37110 
0.29897 0.54297 1.95739 
-0.90046 1.39293 1.17752 
-0.31265 0.55409 1.94805 
-1.20899 0.89999 1.36601 
-1.05042 1.76124 -0.02878 
-1.39477 1.20497 0.87099 
0.90178 1.39411 -1.23296 
1.39599 1.20548 -0.92695 
0.00160 1.04960 -1.78950 
1.20761 0.89954 -1.42128 
0.30736 0.55498 -1.97759 
-0.89949 1.39389 -1.23425 
-0.30381 0.55493 -1.97798 
-1.20494 0.89928 -1.42294 
-1.39425 1.20514 -0.92907 
1.94885 0.30640 0.53121 
1.95209 0.30538 -0.58210 
1.94934 -0.30394 0.53152 
1.95211 -0.30574 -0.58165 
1.75924 0.00173 1.02598 
1.76396 -0.00070 -1.07649 
1.05071 -1.76097 -0.02436 
1.39607 -1.20663 -0.92517 
0.55686 -1.95060 -0.33018 
0.90192 -1.39590 -1.23094 
1.39305 -1.20245 0.87603 
0.55602 -1.94866 0.28082 
0.89943 -1.39061 1.18132 
1.20471 -0.89695 1.37195 
1.20770 -0.90162 -1.41996 
-0.55595 -1.95074 -0.33121 
-0.55639 -1.94883 0.27983 
0.00177 -1.05250 -1.78812 
0.30746 -0.55810 -1.97685 
-0.89930 -1.39610 -1.23250 
-0.30372 -0.55814 -1.97729 
-1.20483 -0.90184 -1.42190 
-1.05044 -1.76129 -0.02627 
-1.39409 -1.20695 -0.92758 
-0.00074 -1.05512 1.74028 
0.30522 -0.55850 1.95063 
-0.90068 -1.39142 1.18016 
-0.30388 -0.55403 1.95265 
-1.20647 -0.89864 1.37040 
-1.39428 -1.20356 0.87386 
-1.76272 -0.00052 1.02287 
-1.95101 0.30504 0.52761 
-1.95077 -0.30546 0.52820 
-1.76182 -0.00107 -1.07919 
-1.95098 0.30482 -0.58521 
-1.95092 -0.30629 -0.58485 
-0.00059 1.86871 0.80812 
0.25942 1.76834 0.97020 
0.15930 1.60654 1.23192 
-0.16216 1.60718 1.23113 
-0.26116 1.76911 0.96921 
0.00083 1.87244 -0.86296 
0.26201 1.77277 -1.02403 
0.16252 1.61137 -1.28500 
-0.16016 1.61133 -1.28523 
-0.26008 1.77273 -1.02443 
1.61074 1.25665 0.13541 
1.61180 1.25689 -0.18737 
1.87241 0.83495 -0.02565 
1.77174 0.99601 0.23534 
1.77346 0.99614 -0.28690 
1.87282 -0.83417 -0.02458 
1.61220 -1.25664 -0.18567 
1.61153 -1.25585 0.13700 
1.77256 -0.99477 0.23655 
1.77371 -0.99596 -0.28553 
0.26219 -1.77435 -1.02152 
0.00101 -1.87379 -0.86034 
0.16272 -1.61342 -1.28275 
-0.15994 -1.61345 -1.28303 
-0.25987 -1.77442 -1.02200 
0.26015 -1.76909 0.97069 
-0.00065 -1.86894 0.80941 
0.16066 -1.60799 1.23153 
-0.16199 -1.60808 1.23137 
-0.26155 -1.76919 0.97034 
1.00195 0.26136 1.75614 
1.25698 0.16126 1.59182 
1.25629 -0.15905 1.59330 
0.99917 -0.25950 1.75964 
0.83390 -0.00045 1.86900 
-1.00753 0.25816 1.75411 
-1.00246 -0.26110 1.75818 
-0.83336 -0.00182 1.86952 
-1.26187 0.15810 1.58990 
-1.25982 -0.16118 1.59177 
0.99822 0.25966 -1.79938 
1.25920 0.16011 -1.63800 
1.25922 -0.16256 -1.63776 
0.99825 -0.26241 -1.79901 
0.83694 -0.00146 -1.89887 
-0.99487 0.25950 -1.80072 
-0.99483 -0.26255 -1.80042 
-0.83341 -0.00158 -1.90001 
-1.25609 0.15990 -1.63975 
-1.25607 -0.16276 -1.63957 
-1.61185 1.25648 0.13223 
-1.61189 1.25657 -0.19028 
-1.77319 0.99557 0.23193 
-1.77322 0.99565 -0.28993 
-1.87292 0.83436 -0.02898 
-1.61165 -1.25716 -0.18850 
-1.61159 -1.25650 0.13418 
-1.77287 -0.99562 0.23352 
-1.77300 -0.99653 -0.28859 
-1.87267 -0.83492 -0.02779 
-0.00011 2.02959 0.26275 
0.00038 2.03107 -0.31799 
0.28448 2.02467 0.12120 
-0.28452 2.02490 0.12050 
0.28487 2.02547 -0.17581 
-0.28439 2.02558 -0.17641 
0.77866 1.72984 0.74735 
1.24842 1.55245 0.45706 
0.80370 1.82509 0.44397 
0.97736 1.53960 0.90589 
1.04390 1.73421 0.29565 
1.21773 1.44912 0.75712 
0.47789 1.24563 1.53291 
0.76910 0.78214 1.71547 
0.77594 1.21684 1.42999 
0.31789 1.04149 1.71820 
0.92481 0.98005 1.52153 
0.46262 0.79767 1.81872 
-0.48571 1.24857 1.52863 
-0.78257 0.78358 1.70862 
-0.32864 1.04493 1.71373 
-0.78422 1.21988 1.42440 
-0.47780 0.80352 1.81057 
-0.93537 0.98173 1.51539 
-0.78077 1.73130 0.74465 
-1.25044 1.55316 0.45380 
-0.80490 1.82600 0.44166 
-0.98091 1.54142 0.90214 
-1.04504 1.73488 0.29297 
-1.22112 1.45029 0.75332 
0.78223 1.73323 -0.80032 
1.25136 1.55390 -0.50953 
0.80586 1.82729 -0.49726 
1.04565 1.73551 -0.34853 
0.98256 1.54281 -0.95797 
1.22253 1.45116 -0.80931 
0.48446 1.24994 -1.58157 
0.77488 0.78015 -1.76031 
0.78412 1.22068 -1.47858 
0.32345 1.04436 -1.76332 
0.93264 0.98045 -1.57001 
0.47195 0.80413 -1.85468 
-0.48160 1.24983 -1.58221 
-0.77167 0.78000 -1.76131 
-0.32029 1.04428 -1.76373 
-0.78141 1.22049 -1.47964 
-0.46862 0.80403 -1.85528 
-0.92975 0.98025 -1.57125 
-0.78072 1.73311 -0.80160 
-1.25054 1.55371 -0.51172 
-0.80493 1.82727 -0.49874 
-1.04513 1.73551 -0.35053 
-0.98076 1.54259 -0.95949 
-1.22104 1.45089 -0.81126 
2.03176 0.29056 -0.02536 
2.03192 -0.28956 -0.02499 
2.02563 0.14916 0.25954 
2.02727 0.14852 -0.31015 
2.02578 -0.14738 0.25970 
2.02730 -0.14823 -0.30994 
1.73016 0.77309 0.75608 
1.55035 0.48361 1.22650 
1.53877 0.93037 0.95630 
1.44675 0.78248 1.19692 
1.82470 0.47091 0.78022 
1.73267 0.32291 1.02058 
1.73501 0.77277 -0.80746 
1.55616 0.48213 -1.27701 
1.54474 0.93047 -1.00779 
1.45326 0.78186 -1.24788 
1.82936 0.46982 -0.83133 
1.73794 0.32118 -1.07144 
1.25158 -1.55438 -0.50737 
0.78238 -1.73431 -0.79786 
1.04594 -1.73586 -0.34622 
1.22265 -1.45214 -0.80721 
0.80605 -1.82792 -0.49477 
0.98268 -1.54410 -0.95575 
1.24991 -1.55176 0.45852 
0.78035 -1.73006 0.74808 
1.04490 -1.73399 0.29737 
1.22017 -1.44815 0.75804 
0.80469 -1.82512 0.44550 
0.98022 -1.53938 0.90616 
1.73176 -0.77047 0.75688 
1.55196 -0.48004 1.22737 
1.82577 -0.46796 0.78069 
1.73364 -0.31951 1.02094 
1.54126 -0.92765 0.95721 
1.44953 -0.77916 1.19792 
1.73504 -0.77363 -0.80630 
1.55620 -0.48392 -1.27628 
1.82938 -0.47072 -0.83062 
1.73795 -0.32257 -1.07095 
1.54479 -0.93174 -1.00639 
1.45331 -0.78359 -1.24671 
0.00045 -2.03162 -0.31524 
-0.00019 -2.02969 0.26509 
0.28499 -2.02586 -0.17317 
0.28461 -2.02488 0.12358 
-0.28441 -2.02594 -0.17370 
-0.28468 -2.02496 0.12306 
0.48463 -1.25242 -1.57983 
0.77499 -0.78286 -1.75921 
0.78427 -1.22292 -1.47683 
0.93276 -0.98282 -1.56859 
0.32361 -1.04715 -1.76189 
0.47208 -0.80704 -1.85358 
-0.48140 -1.25251 -1.58062 
-0.77155 -0.78298 -1.76039 
-0.32012 -1.04721 -1.76240 
-0.78123 -1.22307 -1.47813 
-0.46848 -0.80710 -1.85429 
-0.92961 -0.98299 -1.57008 
-0.78053 -1.73451 -0.79928 
-1.25035 -1.55472 -0.50962 
-0.80481 -1.82814 -0.49625 
-0.98057 -1.54434 -0.95749 
-1.04502 -1.73615 -0.34813 
-1.22085 -1.45244 -0.80938 
0.48435 -1.24936 1.52987 
0.77513 -0.78079 1.71625 
0.78243 -1.21788 1.42815 
0.93097 -0.97857 1.52151 
0.32580 -1.04904 1.71369 
0.47230 -0.80515 1.81432 
-0.48524 -1.24999 1.52961 
-0.77666 -0.78282 1.71511 
-0.32664 -1.04924 1.71395 
-0.78346 -1.21882 1.42747 
-0.47215 -0.80445 1.81533 
-0.93241 -0.98026 1.52033 
-0.78144 -1.73042 0.74683 
-1.25052 -1.55233 0.45637 
-0.80534 -1.82541 0.44410 
-1.04525 -1.73437 0.29552 
-0.98140 -1.54000 0.90467 
-1.22121 -1.44891 0.75606 
0.38085 -0.04979 2.12609 
-0.16045 0.00994 2.24691 
0.28626 0.15692 2.17035 
0.06796 0.38730 2.14632 
0.15319 -0.40753 2.07255 
-0.15258 -0.38865 2.08300 
-1.55623 0.48169 1.22281 
-1.73387 0.77229 0.75226 
-1.45335 0.78174 1.19260 
-1.54380 0.93012 0.95216 
-1.73699 0.32097 1.01707 
-1.82816 0.46949 0.77654 
-1.55454 -0.48222 1.22519 
[...]
CELL_DATA 1942
SCALARS Strain double 
LOOKUP_TABLE default 
-0.08526
-0.08992
-0.08643
-0.08721
-0.08900
-0.08768
-0.08741
-0.08755
-0.08756
-0.08740
-0.08745
-0.08805
-0.08816
-0.08731
-0.08713
-0.08790
-0.08758
-0.08793
-0.08726
-0.08755
-0.08748
-0.08776
-0.08759
-0.08763
-0.08743
-0.08804
-0.08776
-0.08773
-0.08849
-0.08784
-0.09736
-0.07517
-0.07995
-0.09394
-0.07417
-0.10266
-0.09850
-0.06464
-0.06799
-0.07630
-0.08740
-0.08751
-0.08756
-0.08740
-0.08756
-0.08744
-0.08741
-0.08754
-0.08752
-0.08758
-0.08784
-0.08760
-0.08773
-0.08777
-0.08773
-0.08769
-0.08795
-0.08730
-0.08751
-0.08810
-0.03333
-0.03376
0.06910
0.06886
0.06903
0.06928
-0.03524
-0.03438
0.06796
0.07308
0.07175
0.06684
-0.03302
-0.04640
0.08138
0.05759
0.07734
0.08909
-0.03111
-0.03758
0.06339
0.07165
0.07675
0.07301
-0.03408
-0.03401
0.06832
0.06983
0.06963
0.06831
-0.03415
-0.03428
0.06951
0.06979
0.06958
0.06960
-0.03397
-0.03394
0.06948
0.06970
0.06965
0.06951
-0.03401
-0.03399
0.06972
0.06941
0.06948
0.06968
-0.03400
-0.03404
0.06956
0.06921
0.06922
0.06958
-0.03463
-0.03456
0.07006
0.06931
0.06934
0.06982
-0.03340
-0.03344
0.06717
0.07098
0.07085
0.06742
-0.03399
-0.03405
0.06972
0.06944
0.06935
0.06975
-0.03407
-0.03407
0.06937
0.06948
0.06943
0.06932
-0.03511
-0.03529
0.06971
0.06941
0.06952
0.06986
-0.03277
-0.03230
0.06971
0.06724
0.06785
0.06928
-0.03421
-0.03421
0.06953
0.06972
0.06966
0.06954
-0.03425
-0.03421
0.06932
0.06915
0.06916
0.06927
-0.03401
-0.03397
0.06938
0.06965
0.06969
0.06945
-0.03402
-0.03397
0.06971
0.06934
0.06942
0.06970
-0.03397
-0.03400
0.06929
0.06927
0.06935
0.06936
-0.02735
-0.03536
0.07168
0.06804
0.05991
0.07481
-0.02786
-0.03838
0.05902
0.07433
0.08098
0.07177
-0.03529
-0.03512
0.06914
0.06994
0.07023
0.06875
-0.19880
0.01253
0.08116
-0.07152
-0.23026
-0.19962
-0.03295
-0.03383
0.06723
0.07018
0.06929
0.06820
-0.03274
-0.03311
0.07022
0.06718
0.06676
0.07067
-0.03405
-0.03404
0.06961
0.06962
0.06962
0.06960
-0.03421
-0.03425
0.06949
0.06968
0.06972
0.06940
-0.03430
-0.03430
0.06957
0.06961
0.06968
0.06950
-0.03448
-0.03457
0.06925
0.06960
0.06941
0.06935
-0.06366
-0.04360
0.07906
0.07832
0.03275
0.03350
-0.06798
-0.04681
0.07888
0.08387
0.03701
0.03276
-0.06489
-0.04540
0.08455
0.07501
0.03057
0.03805
-0.06581
-0.04606
0.07654
0.08250
0.03646
0.03372
-0.06642
-0.04514
0.07812
0.08205
0.03556
0.03225
-0.06568
-0.04487
0.07981
0.07984
0.03410
0.03409
-0.06547
-0.04488
0.07987
0.07972
0.03415
0.03425
-0.06554
-0.04484
0.07972
0.08008
0.03436
0.03411
-0.06557
-0.04488
0.08009
0.07967
0.03410
0.03440
-0.06543
-0.04479
0.07989
0.07961
0.03395
0.03422
-0.06547
-0.04490
0.08077
0.07815
0.03290
0.03548
-0.06604
-0.04525
0.08036
0.07976
0.03411
0.03442
-0.06625
-0.04554
0.08053
0.07959
0.03407
0.03460
-0.06512
-0.04428
0.07802
0.08069
0.03494
0.03248
-0.06527
-0.04473
0.07974
0.07953
0.03394
0.03410
-0.06599
-0.04535
0.07969
0.07997
0.03449
0.03403
-0.06559
-0.04491
0.07987
0.07958
0.03383
0.03407
-0.06618
-0.04575
0.08012
0.07947
0.03403
0.03475
-0.06501
-0.04400
0.07959
0.07908
0.03308
0.03357
-0.06564
-0.04502
0.07986
0.07968
0.03411
0.03418
-0.06553
-0.04489
0.07986
0.07958
0.03393
0.03419
-0.06581
-0.04512
0.07984
0.07972
0.03404
0.03416
-0.06559
-0.04488
0.07962
0.08004
0.03433
0.03404
-0.06562
-0.04490
0.08006
0.07961
0.03404
0.03438
-0.06545
-0.04479
0.07975
0.07956
0.03391
0.03411
-0.06620
-0.04582
0.07950
0.07889
0.03372
0.03427
-0.06572
-0.04504
0.07930
0.07917
0.03362
0.03355
-0.06571
-0.04447
0.07788
0.08110
0.03384
0.03055
-0.06688
-0.04544
0.08146
0.07877
0.03144
0.03450
-0.06609
-0.04577
0.07905
0.07944
0.03401
0.03347
-0.05546
-0.04054
0.08042
0.07187
0.03042
0.03475
-0.06318
-0.04411
0.07860
0.07843
0.03483
0.03477
-0.06202
-0.04251
0.07582
0.08024
0.03610
0.03213
-0.06268
-0.04264
0.07984
0.07850
0.03547
0.03468
-0.02897
-0.21386
0.14263
0.11155
0.02595
0.02675
-0.05757
-0.03367
0.08255
0.07237
0.02443
0.03380
-0.06164
-0.04022
0.08092
0.08233
0.03374
0.03673
-0.01420
0.15054
0.13496
0.02667
0.02660
-0.05779
-0.04163
0.07294
0.07752
0.03669
0.03151
-0.06178
-0.04285
0.08178
0.07521
0.03210
0.03796
-0.06541
-0.04475
0.07983
0.07988
0.03416
0.03421
-0.06557
-0.04490
0.07978
0.08008
0.03440
0.03407
-0.06564
-0.04502
0.08007
0.07982
0.03416
0.03437
-0.06542
-0.04478
0.07985
0.07984
0.03409
0.03421
-0.06557
-0.04489
0.07992
0.07991
0.03427
0.03427
-0.06545
-0.04480
0.07986
0.07985
0.03422
0.03411
-0.06542
-0.04477
0.07980
0.07988
0.03423
0.03404
-0.06555
-0.04488
0.07992
0.07987
0.03424
0.03427
-0.06560
-0.04499
0.07978
0.08003
0.03435
0.03406
-0.06569
-0.04509
0.07985
0.08004
0.03435
0.03415
-0.06587
-0.04506
0.07946
0.07961
0.03379
0.03373
-0.06560
-0.04490
0.07945
0.07972
0.03406
0.03382
-0.06574
-0.04498
0.07969
0.07932
0.03348
0.03381
-0.06580
-0.04511
0.07976
0.07969
0.03413
0.03416
-0.06583
-0.04524
0.07950
0.07968
0.03409
0.03393
-0.06563
-0.04488
0.07991
0.07944
0.03368
0.03403
-0.06621
-0.04578
0.08024
0.07903
0.03379
0.03488
-0.06510
-0.04420
0.07855
0.07997
0.03394
0.03261
-0.06566
-0.04509
0.07955
0.07976
0.03417
0.03401
-0.06620
-0.04549
0.07993
0.07976
0.03411
0.03411
0.07139
0.07105
0.01932
0.02234
0.01840
0.01648
0.07117
0.07096
0.02010
0.02129
0.01766
0.01714
0.07171
0.07188
0.02029
0.02067
0.01784
0.01695
0.07194
0.07203
0.02032
0.02033
0.01734
0.01705
0.07736
0.07982
0.01791
0.01801
0.01824
0.01148
0.07333
0.07269
0.01957
0.02029
0.01683
0.01672
0.06882
0.06902
0.02220
0.02139
0.01838
0.01916
0.07395
0.08045
0.02142
0.02256
0.02117
0.00944
0.07614
0.07456
0.02000
0.01881
0.01306
0.01860
0.10554
-0.23496
0.06740
0.02688
0.06555
0.02621
0.07278
0.07250
0.02002
0.01899
0.01592
0.01798
0.09306
0.03368
0.06395
0.02626
0.04478
0.02634
0.06996
0.06947
0.01876
0.02377
0.01933
0.01572
0.07194
0.07179
0.02007
0.02041
0.01723
0.01696
0.07161
0.07245
0.01982
0.01988
0.01713
0.01622
0.07200
0.07197
0.02060
0.02061
0.01736
0.01746
0.07215
0.07219
0.02058
0.02035
0.01727
0.01732
0.07223
0.07224
0.02047
0.02047
0.01735
0.01732
0.07209
0.07202
0.02046
0.02069
0.01749
0.01728
0.07206
0.07209
0.02055
0.02059
0.01739
0.01739
0.07184
0.07178
0.02067
0.02056
0.01741
0.01745
0.07205
0.07210
0.02056
0.02055
0.01736
0.01739
0.07214
0.07207
0.02036
0.02064
0.01744
0.01712
0.07211
0.07214
0.02018
0.02052
0.01740
0.01706
0.07287
0.07315
0.02045
0.01896
0.01596
0.01732
0.07179
0.07181
0.02072
0.02045
0.01731
0.01742
0.07190
0.07203
0.02101
0.01931
0.01608
0.01802
0.07216
0.07207
0.02032
0.02047
0.01732
0.01713
0.07013
0.07003
0.02126
0.02114
0.01747
0.01812
0.07228
0.07227
0.02034
0.02048
0.01734
0.01714
0.07197
0.07208
0.02005
0.02039
0.01720
0.01680
0.07204
0.07210
0.02033
0.02051
0.01735
0.01713
0.07190
0.07187
0.02027
0.02033
0.01716
0.01713
0.07182
0.07184
0.02053
0.02060
0.01738
0.01739
0.07161
0.07103
0.02143
0.01950
0.01588
0.01869
0.07181
0.07168
0.02024
0.01999
0.01680
0.01713
0.07258
0.07301
0.02163
0.01741
0.01541
0.01727
0.07120
0.07049
0.01919
0.02243
0.01911
0.01671
0.07208
0.07212
0.02065
0.02035
0.01714
0.01743
0.07170
0.07174
0.02045
0.02027
0.01716
0.01725
0.07171
0.07167
0.01983
0.02040
0.01722
0.01661
0.07222
0.07223
0.02043
0.02043
0.01731
0.01732
0.07203
0.07209
0.02055
0.02057
0.01736
0.01739
0.07179
0.07176
0.02067
0.02047
0.01735
0.01746
0.07201
0.07207
0.02056
0.02058
0.01737
0.01739
0.07217
0.07213
0.02029
0.02063
0.01741
0.01706
0.07202
0.07222
0.01988
0.02030
0.01722
0.01661
0.07195
0.07204
0.02025
0.02055
0.01743
0.01704
0.08790
0.08572
0.01497
0.01465
0.00736
0.01220
0.08772
-0.18157
0.04493
0.02600
0.05942
0.02603
0.07423
0.07321
0.01813
0.02056
0.01586
0.01629
0.10054
-0.13912
0.05842
0.02581
0.06502
0.02588
0.07195
0.07236
0.02273
0.01883
0.01617
0.01921
0.07083
0.07023
0.02155
0.01990
0.01639
0.01878
0.07094
0.06998
0.01890
0.02276
0.01847
0.01646
0.07122
0.07156
0.01990
0.02060
0.01779
0.01644
0.07286
0.07243
0.01902
0.02034
0.01692
0.01613
0.07224
0.07223
0.02031
0.02042
0.01720
0.01709
0.07185
0.07184
0.02049
0.02030
0.01716
0.01731
0.07195
0.07190
0.02041
0.02031
0.01708
0.01729
0.07042
0.06949
-0.00768
-0.00668
0.07427
-0.00302
-0.00595
0.06727
-0.00924
-0.00351
0.07391
-0.00343
-0.00745
-0.00367
-0.00702
0.07114
0.07114
-0.00567
-0.00566
0.07095
-0.00583
-0.00567
0.07131
-0.00554
-0.00578
0.07092
-0.00578
-0.00551
-0.00590
-0.00570
0.07165
0.06988
-0.00662
-0.00502
0.07084
-0.00576
-0.00537
0.07167
0.07080
-0.00567
-0.00527
-0.00533
-0.00690
-0.00607
-0.00606
0.07088
0.07117
-0.00542
-0.00581
0.07126
0.07073
-0.00615
-0.00576
0.07070
-0.00584
-0.00525
-0.00639
-0.00626
-0.00596
-0.00572
0.07112
0.07084
-0.00597
-0.00572
0.07104
-0.00575
-0.00566
0.07126
-0.00559
-0.00585
0.07086
-0.00583
-0.00554
-0.00598
-0.00578
0.07068
0.07012
-0.00615
-0.00588
0.07025
-0.00638
-0.00630
0.07121
-0.00615
-0.00746
0.07074
-0.00637
-0.00576
-0.00593
-0.00673
0.06065
0.09876
-0.00931
-0.02779
0.06345
-0.00106
-0.00710
0.07001
-0.00214
-0.00675
0.08289
-0.00388
-0.01131
-0.02939
-0.01680
0.10734
0.05861
-0.02772
-0.00113
0.09219
0.07023
-0.01412
-0.00397
-0.03746
-0.03072
0.06006
-0.00282
-0.00831
-0.00609
0.00042
0.07103
0.07116
-0.00571
-0.00573
0.07128
-0.00553
-0.00579
0.07106
-0.00573
-0.00554
0.07114
-0.00576
-0.00573
-0.00560
-0.00560
0.07115
0.07104
-0.00572
-0.00574
0.07110
0.07108
-0.00571
-0.00580
-0.00564
-0.00561
0.07125
-0.00558
-0.00581
-0.00555
-0.00573
0.07075
0.07094
-0.00587
-0.00604
0.07087
-0.00594
-0.00603
0.07073
-0.00618
-0.00603
0.07093
-0.00577
-0.00586
-0.00586
-0.00597
0.07133
0.07058
-0.00627
-0.00576
0.07036
-0.00602
-0.00520
0.07104
-0.00613
-0.00673
0.07104
-0.00577
-0.00611
-0.00560
-0.00575
0.05541
0.05588
0.07663
0.07616
0.05609
0.05600
0.07706
0.07717
-0.01392
-0.01474
0.04897
-0.01423
-0.01517
0.04942
-0.01572
0.04925
-0.01593
0.04920
0.05899
0.05413
0.07594
0.08130
0.05471
0.05853
0.07873
0.07505
-0.01538
-0.01729
0.05129
-0.01457
-0.01754
0.04559
-0.01628
0.04865
-0.01564
0.05262
0.05124
0.05829
0.08267
0.07339
0.05525
0.07498
0.08246
0.06392
-0.02289
-0.01808
0.05271
-0.00124
-0.01445
0.03736
-0.01849
0.05231
-0.03726
0.02347
0.05201
0.05406
0.07798
0.07701
0.06901
0.04964
0.06131
0.07260
-0.00450
-0.01725
0.03439
-0.01599
-0.01620
0.05090
-0.03014
0.03715
-0.01076
0.04639
0.05696
0.05471
0.07566
0.07829
0.05552
0.05594
0.07697
0.07672
-0.01465
-0.01619
0.04993
-0.01424
-0.01595
0.04820
-0.01603
0.04892
-0.01608
0.04891
0.05643
0.05641
0.07727
0.07722
0.05628
0.05647
0.07766
0.07728
-0.01486
-0.01610
0.05006
-0.01645
0.04944
-0.01462
-0.01592
0.04979
-0.01613
0.04968
0.05649
0.05628
0.07718
0.07748
0.05629
0.05643
0.07732
0.07727
-0.01443
-0.01586
0.04976
-0.01449
-0.01592
0.04965
-0.01579
0.04961
-0.01585
0.04979
0.05626
0.05653
0.07750
0.07712
0.05644
0.05623
0.07724
0.07734
-0.01453
-0.01595
0.04965
-0.01448
-0.01590
0.04981
-0.01590
0.04980
-0.01585
0.04949
0.05606
0.05639
0.07732
0.07699
0.05631
0.05598
0.07690
0.07725
-0.01466
-0.01600
0.04947
-0.01611
0.04963
-0.01446
-0.01582
0.04974
-0.01590
0.04937
0.05615
0.05670
0.07791
0.07703
0.05673
0.05614
0.07710
0.07746
-0.01546
-0.01697
0.04952
-0.01479
-0.01623
0.04984
-0.01678
0.05030
-0.01616
0.04945
0.05751
0.05426
0.07497
0.07839
0.05475
0.05758
0.07835
0.07552
-0.01378
-0.01489
0.05132
-0.01614
0.04668
-0.01430
-0.01572
0.04785
-0.01557
0.05076
0.05618
0.05644
0.07734
0.07702
0.05656
0.05619
0.07719
0.07752
-0.01456
-0.01589
0.04960
-0.01598
0.04986
-0.01452
-0.01583
0.04980
-0.01596
0.04948
0.05611
0.05616
0.07718
0.07712
0.05611
0.05633
0.07724
0.07702
-0.01463
-0.01602
0.04938
-0.01454
-0.01595
0.04946
-0.01603
0.04949
-0.01591
0.04970
0.05621
0.05687
0.07755
0.07698
0.05610
0.05665
0.07712
0.07667
-0.01538
-0.01667
0.04955
-0.01601
-0.01711
0.05050
-0.01669
0.04954
-0.01784
0.04958
0.05469
0.05580
0.07711
0.07607
0.05716
0.05424
0.07421
0.07743
-0.01373
-0.01524
0.04803
-0.01525
0.04992
-0.01285
-0.01472
0.04864
-0.01382
0.04836
0.05641
0.05634
0.07727
0.07727
0.05632
0.05651
0.07750
0.07726
-0.01473
-0.01612
0.04979
-0.01611
0.04967
-0.01473
-0.01612
0.04969
-0.01611
0.04979
0.05607
0.05621
0.07718
0.07703
0.05595
0.05580
0.07676
0.07681
-0.01475
-0.01617
0.04940
-0.01615
0.04933
-0.01472
-0.01616
0.04950
-0.01608
0.04914
0.05648
0.05622
0.07708
0.07746
0.05621
0.05642
0.07733
0.07722
-0.01448
-0.01591
0.04976
-0.01584
0.04949
-0.01452
-0.01596
0.04962
-0.01588
0.04978
0.05620
0.05653
0.07748
0.07705
0.05645
0.05616
0.07718
0.07737
-0.01452
-0.01597
0.04961
-0.01449
-0.01594
0.04983
-0.01587
0.04979
-0.01584
0.04943
0.05609
0.05623
0.07712
0.07698
0.05596
0.05611
0.07719
0.07698
-0.01455
-0.01593
0.04950
-0.01445
-0.01582
0.04962
-0.01599
0.04920
-0.01589
0.04939
0.05088
0.04495
0.07289
0.08089
0.05683
0.05993
0.07630
0.07299
-0.01483
-0.01307
0.04743
-0.01604
0.05100
0.00192
-0.01721
0.02085
-0.02182
0.03269
0.04692
0.05169
0.08104
0.07419
0.06676
0.05608
0.07016
0.07774
0.00357
-0.01654
0.02384
-0.01667
-0.01421
0.04935
-0.02935
0.02626
-0.01564
0.05092
0.05638
0.05592
0.07670
0.07715
0.05589
0.05707
0.07772
0.07647
-0.01552
-0.01681
0.04970
-0.01681
0.04942
-0.01571
-0.01752
0.04854
-0.01694
0.05070
-0.23112
0.09388
0.23340
-0.03129
-0.23428
0.00674
-0.16029
0.01095
-0.23323
-0.06432
0.12411
-0.08018
0.15188
-0.01970
0.05790
0.05426
0.07310
0.07667
0.05510
0.05602
0.07734
0.07645
-0.01507
-0.01604
0.05121
-0.01645
0.04844
-0.01385
-0.01423
0.04842
-0.01577
0.04891
0.05382
0.05848
0.07866
0.07381
0.05646
0.05416
0.07539
0.07777
-0.01299
-0.01402
0.04765
-0.01478
0.04938
-0.01462
-0.01647
0.05109
-0.01581
0.04781
0.05642
0.05641
0.07734
0.07735
0.05639
0.05642
0.07735
0.07732
-0.01453
-0.01593
0.04974
-0.01593
0.04972
-0.01453
-0.01593
0.04972
-0.01592
0.04973
0.05651
0.05621
0.07722
0.07748
0.05629
0.05643
0.07732
0.07712
-0.01476
-0.01611
0.04981
-0.01621
0.04970
-0.01472
-0.01607
0.04947
-0.01615
0.04979
0.05649
0.05630
0.07729
0.07747
0.05635
0.05636
0.07719
0.07721
-0.01483
-0.01619
0.04976
-0.01621
0.04974
-0.01481
-0.01618
0.04958
-0.01618
0.04975
0.05632
0.05611
0.07695
0.07711
0.05613
0.05623
0.07738
0.07713
-0.01531
-0.01655
0.04992
-0.01687
0.04929
-0.01477
-0.01613
0.04949
-0.01622
0.04946
-0.01523
-0.01891
-0.01579
-0.01774
0.08472
0.08425
-0.01977
-0.01838
0.09085
-0.01540
-0.01604
0.08247
-0.01894
-0.01746
0.08660
-0.01716
-0.01719
-0.01729
-0.01714
0.08551
0.08561
-0.01704
-0.01709
0.08551
-0.01717
-0.01719
0.08584
-0.01713
-0.01699
0.08538
-0.01726
-0.01786
-0.01679
-0.01621
0.08645
0.08314
-0.01744
-0.01698
0.08565
-0.01828
-0.01699
-0.01748
-0.01689
0.08654
0.08533
-0.01792
-0.01665
-0.01737
-0.01729
0.08547
0.08567
-0.01722
-0.01774
-0.01716
-0.01728
0.08568
0.08553
-0.01800
-0.01635
0.08493
-0.01722
-0.01740
-0.01708
-0.01715
0.08555
0.08537
-0.01741
-0.01712
0.08541
-0.01722
-0.01723
0.08582
-0.01719
-0.01700
0.08533
-0.01779
-0.01741
-0.01816
-0.01675
0.08519
0.08394
-0.01729
-0.01786
0.08505
-0.01835
-0.01935
0.09100
-0.01787
-0.01778
0.08476
-0.01529
-0.01910
0.01967
-0.08106
0.08850
0.02546
-0.01615
-0.01706
0.08358
-0.01487
-0.01759
0.08514
-0.00065
-0.03941
0.05840
0.02279
-0.08252
-0.01210
-0.01576
0.02848
0.08081
0.01323
-0.06414
-0.01763
-0.01500
0.04217
0.08686
-0.01371
-0.01854
0.08360
-0.01698
-0.01718
-0.01704
-0.01715
0.08560
0.08565
-0.01718
-0.01728
0.08586
-0.01727
-0.01701
0.08563
-0.01706
-0.01715
0.08563
-0.01708
-0.01714
-0.01703
-0.01725
0.08564
0.08562
-0.01705
-0.01714
-0.01701
-0.01733
0.08560
0.08567
-0.01722
-0.01732
0.08582
-0.01733
-0.01733
-0.01756
-0.01755
0.08527
0.08548
-0.01715
-0.01745
0.08561
-0.01720
-0.01760
0.08509
-0.01738
-0.01731
0.08541
-0.01729
-0.01786
-0.01715
-0.01734
0.08577
0.08542
-0.01786
-0.01634
0.08426
-0.01698
-0.01820
0.08598
-0.01731
-0.01749
0.08550
0.04775
0.04795
0.04929
0.04779
0.04831
0.04839
0.05177
0.04433
0.05074
0.08876
-0.01466
-0.00057
0.04680
0.04769
0.04869
0.04836
0.04857
0.04842
0.04854
0.04843
0.04844
0.04817
0.04850
0.04851
0.04930
0.04836
0.04675
0.04819
0.04847
0.04855
0.04827
0.04809
0.04819
0.04848
0.04820
0.04847
0.04783
0.04957
0.04678
0.04790
0.04821
0.04835
0.04853
0.04843
0.04841
0.04813
0.04853
0.04843
0.10258
-0.02423
-0.02419
0.04972
0.04774
0.04697
0.04711
0.04770
0.04913
0.04853
0.04818
0.04827
0.00186
-0.03199
0.01101
-0.01504
0.05673
-0.21560
-0.15567
0.01771
0.08173
-0.13753
0.11750
-0.25020
-0.27835
-0.25254
-0.12707
-0.14460
-0.06755
-0.03535
-0.11202
0.02311
-0.18842
-0.00806
-0.21755
0.23564
-0.07445
-0.03698
0.10000
