# vtk DataFile Version 3.0
Point representing Sub_cellular elem model
ASCII

DATASET UNSTRUCTURED_GRID
POINTS 682 float
0.00151 1.73276 0.90742 
0.00406 1.73783 -1.23824 
1.74253 1.07057 -0.15620 
1.74198 -1.07853 -0.15457 
0.00384 -1.74657 -1.23651 
-0.00167 -1.73992 0.91196 
1.06132 -0.00461 1.61591 
-1.07003 -0.00406 1.58653 
1.08169 -0.00490 -1.89853 
-1.07166 -0.00445 -1.90351 
-1.74085 1.07321 -0.16628 
-1.74101 -1.08025 -0.16558 
0.00261 2.04923 -0.16391 
1.02711 1.65279 0.47306 
0.63467 1.01633 1.50325 
-0.63289 1.01816 1.48949 
-1.02502 1.65586 0.46626 
1.03027 1.65639 -0.79403 
0.63952 1.02154 -1.81964 
-0.62954 1.02191 -1.82233 
-1.02399 1.65790 -0.79894 
2.05228 -0.00403 -0.15395 
1.65403 0.62557 0.87293 
1.66492 0.62976 -1.18287 
1.02995 -1.66478 -0.79174 
1.02486 -1.66026 0.47599 
1.65214 -0.63445 0.87374 
1.66492 -0.63864 -1.18191 
0.00163 -2.05659 -0.16147 
0.63955 -1.03116 -1.81837 
-0.62974 -1.03109 -1.82159 
-1.02451 -1.66561 -0.79779 
0.62820 -1.02237 1.50730 
-0.63502 -1.02244 1.50298 
-1.02593 -1.66247 0.46927 
0.03977 0.55523 2.27691 
-1.65879 0.62763 0.85737 
-1.65786 -0.63717 0.86047 
0.00569 -0.00497 -2.21163 
-1.65813 0.63087 -1.19106 
-1.65841 -0.63855 -1.19086 
-2.05220 -0.00370 -0.16660 
0.00197 1.96590 0.40565 
0.52474 1.76323 0.72937 
0.32498 1.43831 1.24896 
-0.32245 1.43898 1.24521 
-0.52181 1.76481 0.72578 
0.00334 1.96845 -0.73424 
0.52764 1.76775 -1.05596 
0.32831 1.44365 -1.57890 
-0.31910 1.44390 -1.58027 
-0.52014 1.76841 -1.05828 
1.44856 1.41160 0.16560 
1.45102 1.41344 -0.48151 
1.97164 0.56619 -0.15477 
1.76920 0.88767 0.36822 
1.77457 0.89017 -0.67978 
1.97135 -0.57422 -0.15386 
1.45057 -1.42158 -0.47941 
1.44730 -1.41939 0.16780 
1.76806 -0.89575 0.36960 
1.77442 -0.89851 -0.67841 
0.52741 -1.77638 -1.05383 
0.00284 -1.97651 -0.73217 
0.32826 -1.45290 -1.57730 
-0.31929 -1.45296 -1.57902 
-0.52054 -1.77672 -1.05681 
0.52177 -1.77035 0.73317 
0.00014 -1.97292 0.40875 
0.31973 -1.44509 1.25476 
-0.32636 -1.44592 1.25283 
-0.52394 -1.77169 0.72978 
0.89251 0.51538 1.63487 
1.40859 0.31481 1.30139 
1.40679 -0.32457 1.30154 
0.88736 -0.52262 1.63618 
0.54786 -0.00222 1.90056 
-0.89880 0.52061 1.60343 
-0.89489 -0.52401 1.61682 
-0.56185 0.00654 1.84865 
-1.41620 0.31557 1.28008 
-1.41460 -0.32688 1.28457 
0.90033 0.51857 -1.92937 
1.42342 0.31882 -1.60477 
1.42344 -0.32824 -1.60429 
0.90035 -0.52839 -1.92866 
0.57702 -0.00502 -2.12937 
-0.89004 0.51902 -1.93330 
-0.89019 -0.52811 -1.93299 
-0.56598 -0.00477 -2.13193 
-1.41467 0.31951 -1.61144 
-1.41481 -0.32782 -1.61131 
-1.44723 1.41490 0.15660 
-1.44675 1.41575 -0.48916 
-1.77083 0.89045 0.35606 
-1.77029 0.89197 -0.68917 
-1.97104 0.56799 -0.16657 
-1.44716 -1.42293 -0.48827 
-1.44745 -1.42173 0.15831 
-1.77050 -0.89814 0.35750 
-1.77059 -0.89921 -0.68884 
-1.97106 -0.57527 -0.16622 
0.55869 1.94586 0.14259 
-0.55455 1.94750 0.13955 
0.55976 1.94738 -0.46735 
-0.55400 1.94853 -0.47004 
0.89977 1.38401 1.04322 
1.05342 1.75713 -0.16019 
1.39223 1.19626 0.74263 
0.00165 1.04887 1.59344 
1.20114 0.88927 1.24014 
0.30541 0.55436 1.83384 
-0.89880 1.38664 1.03401 
-0.30084 0.55226 1.81596 
-1.20463 0.89266 1.22226 
-1.04935 1.75960 -0.16586 
-1.39350 1.19985 0.73079 
0.90507 1.39034 -1.36522 
1.39901 1.20139 -1.05828 
0.00519 1.04607 -1.92255 
1.21086 0.89568 -1.55258 
0.31111 0.55144 -2.11001 
-0.89673 1.39112 -1.36920 
-0.30009 0.55158 -2.11131 
-1.20206 0.89646 -1.55801 
-1.39226 1.20277 -1.06497 
1.94697 0.30007 0.40284 
1.95383 0.30113 -0.71162 
1.94654 -0.30839 0.40331 
1.95379 -0.30949 -0.71114 
1.75358 -0.00459 0.89897 
1.76655 -0.00445 -1.20654 
1.05247 -1.76489 -0.15759 
1.39892 -1.21013 -1.05652 
0.55911 -1.95527 -0.46484 
0.90503 -1.39941 -1.36338 
1.38947 -1.20431 0.74467 
0.55725 -1.95320 0.14550 
0.89523 -1.39136 1.04665 
1.19658 -0.89773 1.24174 
1.21089 -0.90502 -1.55129 
-0.55469 -1.95602 -0.46823 
-0.55574 -1.95435 0.14194 
0.00514 -1.05566 -1.92151 
0.31111 -0.56137 -2.10938 
-0.89711 -1.39962 -1.36830 
-0.30014 -0.56127 -2.11083 
-1.20238 -0.90492 -1.55758 
-1.05001 -1.76652 -0.16420 
-1.39270 -1.21056 -1.06440 
-0.00525 -1.05399 1.60326 
0.29705 -0.55623 1.83477 
-0.90013 -1.39342 1.04086 
-0.30378 -0.54426 1.83075 
-1.20330 -0.90034 1.23130 
-1.39321 -1.20719 0.73485 
-1.75987 -0.00549 0.88325 
-1.95018 0.30097 0.38905 
-1.94997 -0.30958 0.38956 
-1.75995 -0.00380 -1.21561 
-1.95002 0.30219 -0.72231 
-1.95013 -0.30937 -0.72223 
0.00173 1.86581 0.66783 
0.26236 1.76480 0.82892 
0.16262 1.60235 1.08763 
-0.15990 1.60270 1.08622 
-0.25928 1.76552 0.82711 
0.00371 1.86972 -0.99741 
0.26508 1.76964 -1.15783 
0.16573 1.60802 -1.41852 
-0.15703 1.60816 -1.41920 
-0.25721 1.76995 -1.15896 
1.61276 1.25105 0.00441 
1.61420 1.25190 -0.31832 
1.87360 0.82945 -0.15544 
1.77284 0.98989 0.10519 
1.77546 0.99116 -0.41715 
1.87318 -0.83745 -0.15413 
1.61369 -1.25993 -0.31643 
1.61191 -1.25892 0.00630 
1.77205 -0.99782 0.10673 
1.77515 -0.99928 -0.41563 
0.26486 -1.77834 -1.15589 
0.00336 -1.87815 -0.99550 
0.16560 -1.61703 -1.41683 
-0.15722 -1.61709 -1.41770 
-0.25752 -1.77850 -1.15734 
0.25924 -1.77187 0.83313 
-0.00072 -1.87286 0.67153 
0.15849 -1.60940 1.09295 
-0.16352 -1.60987 1.09193 
-0.26199 -1.77258 0.83144 
0.99004 0.25325 1.64448 
1.24621 0.15346 1.47348 
1.24507 -0.16325 1.47350 
0.98739 -0.26189 1.64485 
0.81828 -0.00379 1.76699 
-1.00137 0.25563 1.60971 
-0.99744 -0.26177 1.61750 
-0.82820 -0.00057 1.72791 
-1.25553 0.15322 1.44774 
-1.25383 -0.16426 1.45129 
1.00172 0.25605 -1.93072 
1.26250 0.15647 -1.76893 
1.26251 -0.16611 -1.76870 
1.00174 -0.26589 -1.93036 
0.84055 -0.00498 -2.03045 
-0.99149 0.25650 -1.93521 
-0.99158 -0.26551 -1.93506 
-0.82993 -0.00462 -2.03425 
-1.25303 0.15702 -1.77478 
-1.25310 -0.16564 -1.77470 
-1.61140 1.25404 -0.00523 
-1.61119 1.25444 -0.32728 
-1.77281 0.99269 0.09420 
-1.77250 0.99340 -0.42697 
-1.87249 0.83179 -0.16645 
-1.61148 -1.26150 -0.32648 
-1.61155 -1.26101 -0.00411 
-1.77276 -0.99990 0.09517 
-1.77275 -1.00051 -0.42649 
-1.87257 -0.83894 -0.16592 
0.00227 2.02792 0.12555 
0.00297 2.02915 -0.45355 
0.28728 2.02267 -0.01507 
-0.28250 2.02347 -0.01655 
0.28771 2.02335 -0.31126 
-0.28220 2.02402 -0.31266 
0.78237 1.72565 0.60965 
1.25147 1.54703 0.32348 
0.80711 1.82150 0.30790 
0.98134 1.53383 0.76883 
1.04723 1.73000 0.16119 
1.22088 1.44262 0.62277 
0.48527 1.24240 1.38752 
0.77254 0.77350 1.58612 
0.78203 1.21047 1.28972 
0.32736 1.04268 1.57159 
0.92865 0.97084 1.38728 
0.47172 0.79807 1.68296 
-0.48297 1.24344 1.37983 
-0.77481 0.77897 1.56199 
-0.32425 1.04316 1.56363 
-0.78102 1.21264 1.27853 
-0.46830 0.79938 1.66640 
-0.93023 0.97455 1.36952 
-0.77979 1.72807 0.60437 
-1.24985 1.55039 0.31540 
-0.80385 1.82392 0.30313 
-0.97996 1.53681 0.76104 
-1.04422 1.73287 0.15506 
-1.22032 1.44614 0.61351 
0.78543 1.72979 -0.93353 
1.25447 1.54983 -0.64177 
0.80906 1.82401 -0.63092 
1.04887 1.73180 -0.48172 
0.98578 1.53906 -1.09044 
1.22567 1.44718 -0.94130 
0.48792 1.24626 -1.71414 
0.77843 0.77644 -1.89213 
0.78751 1.21691 -1.61073 
0.32703 1.04072 -1.89591 
0.93605 0.97666 -1.70174 
0.47560 0.80048 -1.98695 
-0.47827 1.24658 -1.71617 
-0.76822 0.77685 -1.89545 
-0.31675 1.04090 -1.89725 
-0.77829 1.21745 -1.61410 
-0.46501 0.80072 -1.98892 
-0.92656 0.97723 -1.70578 
-0.77845 1.73085 -0.93711 
-1.24910 1.55177 -0.64806 
-0.80305 1.82544 -0.63480 
-1.04370 1.73379 -0.48700 
-0.97844 1.54016 -1.09493 
-1.21912 1.44866 -0.94714 
2.03200 0.28555 -0.15428 
2.03185 -0.29360 -0.15381 
2.02463 0.14387 0.13102 
2.02825 0.14412 -0.43928 
2.02450 -0.15198 0.13126 
2.02821 -0.15228 -0.43904 
1.72931 0.76499 0.62674 
1.54593 0.47389 1.09979 
1.53868 0.92129 0.82599 
1.44530 0.77218 1.06781 
1.82228 0.46328 0.65191 
1.72835 0.31489 0.89324 
1.73750 0.76852 -0.93774 
1.55911 0.47827 -1.40753 
1.54761 0.92637 -1.13857 
1.45629 0.77792 -1.37872 
1.83167 0.46570 -0.96127 
1.74056 0.31728 -1.20157 
1.25409 -1.55809 -0.63953 
0.78517 -1.73830 -0.93128 
1.04830 -1.73985 -0.47927 
1.22549 -1.45577 -0.93924 
0.80858 -1.83216 -0.62849 
0.98564 -1.54780 -1.08836 
1.24971 -1.55468 0.32602 
0.77970 -1.73293 0.61300 
1.04575 -1.73756 0.16394 
1.21825 -1.45031 0.62537 
0.80530 -1.82887 0.31091 
0.97804 -1.54126 0.77199 
1.72777 -0.77340 0.62787 
1.54389 -0.48329 1.10025 
1.82128 -0.47189 0.65258 
1.72733 -0.32400 0.89363 
1.53617 -0.92979 0.82737 
1.44220 -0.78110 1.06884 
1.73745 -0.77712 -0.93656 
1.55912 -0.48744 -1.40680 
1.83164 -0.47431 -0.96054 
1.74056 -0.32618 -1.20108 
1.54758 -0.93520 -1.13718 
1.45630 -0.78704 -1.37756 
0.00227 -2.03684 -0.45130 
0.00093 -2.03504 0.12824 
0.28689 -2.03098 -0.30877 
0.28611 -2.03001 -0.01237 
-0.28302 -2.03142 -0.31052 
-0.28361 -2.03057 -0.01417 
0.48792 -1.25572 -1.71267 
0.77846 -0.78618 -1.89111 
0.78752 -1.22628 -1.60916 
0.93608 -0.98617 -1.70042 
0.32703 -1.05037 -1.89474 
0.47561 -0.81029 -1.98598 
-0.47847 -1.25573 -1.71518 
-0.76841 -0.78601 -1.89494 
-0.31687 -1.05033 -1.89636 
-0.77857 -1.22631 -1.61329 
-0.46513 -0.81018 -1.98829 
-0.92683 -0.98608 -1.70521 
-0.77893 -1.73887 -0.93581 
-1.24960 -1.55919 -0.64704 
-0.80364 -1.83303 -0.63332 
-0.97889 -1.54828 -1.09393 
-1.04428 -1.74108 -0.48565 
-1.21960 -1.45643 -0.94630 
0.47930 -1.24905 1.39276 
0.76611 -0.77950 1.58881 
0.77630 -1.21748 1.29346 
0.92277 -0.97817 1.38994 
0.32118 -1.04868 1.57767 
0.46515 -0.80214 1.68670 
-0.48678 -1.24971 1.39005 
-0.77342 -0.78132 1.57753 
-0.32983 -1.04795 1.57595 
-0.78270 -1.21889 1.28854 
-0.47089 -0.79926 1.68233 
-0.92980 -0.98022 1.38167 
-0.78130 -1.73477 0.60792 
-1.25032 -1.55707 0.31778 
-0.80501 -1.83059 0.30571 
-1.04499 -1.73953 0.15720 
-0.98105 -1.54353 0.76556 
-1.22071 -1.45293 0.61714 
0.23868 -0.42840 2.00462 
0.21935 -0.37579 2.22316 
0.39383 0.33669 2.18312 
0.14253 -0.18622 2.97920 
-0.28354 -0.38719 2.06788 
-0.36432 -0.28894 2.33728 
-1.55214 0.47534 1.08174 
-1.73254 0.76753 0.61309 
-1.44985 0.77501 1.05092 
-1.54185 0.92442 0.81186 
-1.73415 0.31550 0.87721 
-1.82656 0.46467 0.63740 
[...]
CELL_DATA 2038
SCALARS Strain double 
LOOKUP_TABLE default 
-0.09012
-0.08937
-0.08812
-0.09114
-0.08753
-0.08836
-0.08708
-0.08782
-0.08768
-0.08725
-0.08950
-0.08695
-0.08883
-0.08621
-0.08781
-0.08876
-0.08733
-0.08870
-0.08657
-0.08753
-0.08687
-0.08836
-0.08794
-0.08751
-0.08716
-0.08890
-0.08787
-0.08805
-0.08774
-0.08885
-0.10676
-0.06413
-0.06556
-0.10605
-0.04990
-0.10486
-0.10518
-0.06988
-0.07034
-0.07434
-0.08758
-0.08755
-0.08749
-0.08763
-0.08744
-0.08755
-0.08738
-0.08759
-0.08749
-0.08778
-0.08837
-0.08728
-0.08862
-0.08876
-0.08708
-0.08762
-0.08771
-0.08804
-0.08810
-0.08751
-0.03641
-0.03607
0.07013
0.06896
0.06898
0.07005
-0.03854
-0.03835
0.07140
0.06929
0.06877
0.07136
-0.02175
-0.03294
0.07581
0.04886
0.06005
0.08340
-0.03062
-0.04576
0.05711
0.07207
0.08220
0.07431
-0.03531
-0.03529
0.06951
0.06604
0.06628
0.06969
-0.03323
-0.03315
0.06879
0.06846
0.06866
0.06883
-0.03423
-0.03420
0.06921
0.06985
0.06987
0.06929
-0.03416
-0.03414
0.06972
0.06925
0.06939
0.06964
-0.03373
-0.03373
0.06977
0.06787
0.06835
0.06977
-0.03623
-0.03622
0.06991
0.07034
0.07072
0.06981
-0.02797
-0.02550
0.06533
0.06572
0.06811
0.06270
-0.03427
-0.03423
0.06915
0.06983
0.06981
0.06923
-0.03325
-0.03319
0.06869
0.06902
0.06900
0.06878
-0.03663
-0.03687
0.06961
0.06960
0.07010
0.07052
-0.02931
-0.02710
0.07042
0.06256
0.06461
0.06887
-0.03415
-0.03414
0.06968
0.06926
0.06922
0.06978
-0.03551
-0.03548
0.06927
0.06998
0.07004
0.06933
-0.03438
-0.03432
0.06932
0.06999
0.07002
0.06942
-0.03393
-0.03391
0.06991
0.06891
0.06906
0.06984
-0.03361
-0.03367
0.06998
0.06834
0.06821
0.07000
-0.02257
-0.03405
0.07953
0.06293
0.04942
0.08739
-0.02422
-0.04435
0.04524
0.08290
0.09569
0.06756
-0.03606
-0.03543
0.06978
0.06910
0.07040
0.06920
-0.09667
-0.02849
0.19148
-0.01805
0.03915
-0.03254
-0.03387
0.06468
0.06982
0.06812
0.06598
-0.03156
-0.03264
0.07018
0.06554
0.06473
0.07110
-0.03397
-0.03399
0.06935
0.06950
0.06950
0.06932
-0.03439
-0.03459
0.06928
0.06999
0.07007
0.06912
-0.03475
-0.03482
0.06956
0.07016
0.07018
0.06935
-0.03365
-0.03375
0.06806
0.06926
0.06895
0.06843
-0.06829
-0.04750
0.08006
0.07791
0.03256
0.03435
-0.06828
-0.04859
0.08062
0.07606
0.03136
0.03607
-0.06507
-0.04194
0.07478
0.07927
0.02956
0.02697
-0.06977
-0.04854
0.08108
0.07583
0.03039
0.03419
-0.06572
-0.04555
0.07790
0.07575
0.03042
0.03258
-0.06681
-0.04654
0.07978
0.08030
0.03481
0.03425
-0.06496
-0.04417
0.07963
0.07900
0.03301
0.03385
-0.06581
-0.04510
0.07931
0.08032
0.03467
0.03386
-0.06569
-0.04501
0.08026
0.07926
0.03386
0.03450
-0.06525
-0.04457
0.08011
0.07892
0.03287
0.03427
-0.06849
-0.04864
0.08024
0.08015
0.03535
0.03578
-0.06475
-0.04398
0.07951
0.07846
0.03252
0.03360
-0.06733
-0.04695
0.07918
0.08094
0.03594
0.03401
-0.06302
-0.04078
0.07840
0.07804
0.03061
0.03096
-0.06582
-0.04513
0.07871
0.08051
0.03473
0.03327
-0.06728
-0.04691
0.08007
0.08043
0.03523
0.03451
-0.06508
-0.04420
0.07970
0.07888
0.03308
0.03377
-0.06727
-0.04709
0.08036
0.07927
0.03452
0.03567
-0.06369
-0.04179
0.07945
0.07781
0.03077
0.03260
-0.06561
-0.04498
0.08018
0.07898
0.03340
0.03454
-0.06477
-0.04404
0.07964
0.07909
0.03315
0.03383
-0.06671
-0.04625
0.07983
0.08053
0.03496
0.03437
-0.06597
-0.04527
0.07941
0.08055
0.03488
0.03401
-0.06549
-0.04479
0.08048
0.07901
0.03360
0.03468
-0.06513
-0.04444
0.08038
0.07876
0.03291
0.03454
-0.06731
-0.04715
0.07939
0.07937
0.03335
0.03418
-0.06643
-0.04613
0.07934
0.07898
0.03327
0.03383
-0.06579
-0.04386
0.07969
0.07828
0.03154
0.03333
-0.06517
-0.04314
0.07780
0.07977
0.03314
0.03046
-0.06711
-0.04671
0.07932
0.07944
0.03325
0.03437
-0.07087
-0.04123
0.07664
0.10219
0.04888
0.02610
-0.04920
-0.03312
0.07935
0.06684
0.02687
0.03685
-0.05077
-0.03483
0.06706
0.08287
0.03942
0.02675
-0.07240
-0.04388
0.08169
0.10407
0.05081
0.03218
0.00137
0.11094
0.14845
0.14355
0.02592
0.02585
-0.05642
-0.03866
0.06509
0.07458
0.03224
0.02739
-0.06514
-0.04634
0.07810
0.07993
0.03124
0.03951
-0.02880
0.13636
0.14534
0.02618
0.02610
-0.05927
-0.04154
0.07256
0.07391
0.03416
0.03082
-0.06043
-0.04128
0.08063
0.07059
0.02781
0.03844
-0.06563
-0.04500
0.08001
0.07969
0.03400
0.03433
-0.06563
-0.04502
0.07998
0.07972
0.03405
0.03428
-0.06555
-0.04493
0.07971
0.07996
0.03421
0.03403
-0.06571
-0.04510
0.08003
0.07979
0.03410
0.03440
-0.06545
-0.04479
0.07969
0.07979
0.03411
0.03399
-0.06559
-0.04495
0.07985
0.07971
0.03415
0.03409
-0.06539
-0.04473
0.07951
0.07992
0.03428
0.03371
-0.06556
-0.04486
0.07989
0.07961
0.03399
0.03421
-0.06560
-0.04506
0.07957
0.08013
0.03439
0.03378
-0.06597
-0.04546
0.07987
0.08019
0.03456
0.03414
-0.06674
-0.04620
0.07744
0.08084
0.03477
0.03166
-0.06524
-0.04456
0.07787
0.08003
0.03412
0.03279
-0.06667
-0.04558
0.08074
0.07756
0.03135
0.03440
-0.06659
-0.04566
0.08025
0.07943
0.03406
0.03477
-0.06506
-0.04441
0.07815
0.07926
0.03360
0.03293
-0.06545
-0.04461
0.07879
0.08020
0.03432
0.03313
-0.06601
-0.04576
0.07917
0.07939
0.03420
0.03435
-0.06577
-0.04443
0.07869
0.07993
0.03385
0.03260
-0.06628
-0.04567
0.08036
0.07937
0.03411
0.03481
-0.06551
-0.04472
0.07970
0.07904
0.03316
0.03365
0.07285
0.07329
0.01883
0.01814
0.01527
0.01546
0.07146
0.07161
0.02062
0.01724
0.01459
0.01731
0.07142
0.07133
0.02127
0.01902
0.01555
0.01827
0.07247
0.07235
0.02061
0.01876
0.01510
0.01747
0.07269
0.07449
0.02430
0.01133
0.00948
0.01939
0.07099
0.07090
0.02178
0.01861
0.01533
0.01848
0.07288
0.07069
0.02357
0.01523
0.01054
0.02235
0.08400
0.08668
0.01087
0.01685
0.01444
0.00659
0.06321
0.06565
0.03118
0.01724
0.01745
0.02488
0.10022
0.17534
0.04269
0.02588
0.07879
0.02565
0.07037
0.06887
0.01694
0.02031
0.01547
0.01517
0.10851
0.03032
0.08367
0.02576
0.06890
0.02593
0.06908
0.06725
0.01662
0.02146
0.01764
0.01455
0.06927
0.06983
0.02083
0.02036
0.01719
0.01754
0.07276
0.07294
0.01790
0.01731
0.01429
0.01474
0.07139
0.07158
0.02017
0.02103
0.01789
0.01705
0.07143
0.07154
0.01997
0.02106
0.01790
0.01690
0.07233
0.07229
0.02026
0.02030
0.01718
0.01712
0.07239
0.07238
0.02025
0.02033
0.01710
0.01700
0.07184
0.07186
0.02064
0.02041
0.01721
0.01744
0.07155
0.07125
0.02075
0.02057
0.01742
0.01751
0.07197
0.07200
0.02054
0.02032
0.01714
0.01741
0.07204
0.07192
0.02028
0.02067
0.01745
0.01692
0.07233
0.07241
0.01953
0.02052
0.01743
0.01668
0.07230
0.07181
0.02306
0.01639
0.01286
0.02075
0.07255
0.07238
0.02041
0.01962
0.01647
0.01724
0.07353
0.07354
0.02204
0.01633
0.01285
0.01936
0.07220
0.07216
0.02072
0.01969
0.01649
0.01744
0.06418
0.06417
0.02332
0.02549
0.02159
0.01979
0.07177
0.07178
0.02057
0.02047
0.01726
0.01740
0.07129
0.07159
0.01927
0.02117
0.01813
0.01604
0.07158
0.07166
0.02008
0.02097
0.01790
0.01698
0.07157
0.07168
0.01930
0.02130
0.01814
0.01606
0.07147
0.07167
0.02015
0.02118
0.01797
0.01702
0.07103
0.06925
0.02334
0.01786
0.01367
0.02217
0.07248
0.07245
0.01943
0.01949
0.01616
0.01611
0.07460
0.07733
0.02197
0.01396
0.01269
0.01677
0.06976
0.06762
0.01585
0.03206
0.02505
0.01506
0.07238
0.07245
0.02031
0.02035
0.01708
0.01708
0.07256
0.07252
0.02075
0.01906
0.01579
0.01762
0.07191
0.07207
0.02025
0.01919
0.01582
0.01709
0.07252
0.07248
0.02042
0.02004
0.01696
0.01729
0.07197
0.07200
0.02073
0.02026
0.01703
0.01754
0.07123
0.07103
0.02093
0.02084
0.01768
0.01770
0.07168
0.07176
0.02065
0.02051
0.01732
0.01752
0.07228
0.07219
0.01989
0.02088
0.01770
0.01657
0.07072
0.07096
0.02046
0.02073
0.01764
0.01713
0.07257
0.07263
0.01951
0.02064
0.01761
0.01644
0.08721
0.08163
0.01833
0.01718
0.00908
0.01662
0.10441
-0.18348
0.04548
0.02618
0.08101
0.02532
0.07889
0.07516
0.01374
0.02184
0.01512
0.01391
0.12580
0.02392
0.06301
0.02564
0.09643
0.02542
0.06961
0.07142
0.02677
0.01499
0.01356
0.02250
0.07069
0.06928
0.02197
0.01940
0.01517
0.02060
0.06930
0.06807
0.01805
0.02351
0.01905
0.01556
0.06942
0.07009
0.02018
0.02032
0.01793
0.01658
0.07315
0.07238
0.01899
0.01932
0.01594
0.01616
0.07263
0.07267
0.01997
0.02031
0.01694
0.01668
0.07149
0.07141
0.02117
0.01959
0.01670
0.01803
0.07160
0.07128
0.02118
0.01980
0.01661
0.01804
0.07110
0.06839
-0.00779
-0.00570
0.06691
-0.00877
-0.00504
0.07078
-0.00847
-0.01101
0.06824
-0.00738
-0.00571
-0.00899
-0.00874
0.07104
0.07137
-0.00516
-0.00550
0.07043
-0.00677
-0.00598
0.07158
-0.00518
-0.00601
0.07035
-0.00608
-0.00534
-0.00681
-0.00572
0.07147
0.07065
-0.00493
-0.00401
0.06945
-0.00777
-0.00605
0.06976
0.07211
-0.00393
-0.00606
-0.00856
-0.00777
-0.00504
-0.00700
0.07066
0.07165
-0.00452
-0.00562
0.07153
0.06989
-0.00703
-0.00585
0.07020
-0.00550
-0.00435
-0.00784
-0.00718
-0.00683
-0.00534
0.07103
0.07052
-0.00669
-0.00606
0.07163
-0.00495
-0.00543
0.07180
-0.00496
-0.00586
0.07019
-0.00629
-0.00519
-0.00683
-0.00548
0.07014
0.07095
-0.00637
-0.00627
0.07010
-0.00695
-0.00664
0.06912
-0.00778
-0.00565
0.07083
-0.00606
-0.00802
-0.00643
-0.00592
0.07492
0.10404
0.01260
-0.00580
0.05151
-0.01513
0.00213
0.07833
0.00447
-0.01503
0.10179
0.01236
0.00073
-0.03703
-0.03667
0.09912
0.05679
-0.03296
-0.00879
0.09641
0.06487
-0.02546
-0.00396
-0.03506
-0.03764
0.05411
-0.00444
-0.00839
-0.01056
-0.00075
0.07119
0.07098
-0.00582
-0.00560
0.07097
-0.00580
-0.00565
0.07117
-0.00571
-0.00584
0.07106
-0.00573
-0.00558
-0.00578
-0.00587
0.07118
0.07087
-0.00579
-0.00572
0.07086
0.07109
-0.00571
-0.00608
-0.00585
-0.00562
0.07126
-0.00563
-0.00606
-0.00547
-0.00572
0.06922
0.07194
-0.00516
-0.00750
0.07121
-0.00610
-0.00712
0.06947
-0.00752
-0.00522
0.07061
-0.00569
-0.00519
-0.00650
-0.00700
0.07031
0.07132
-0.00575
-0.00658
0.07077
-0.00572
-0.00596
0.07087
-0.00609
-0.00627
0.07051
-0.00582
-0.00531
-0.00643
-0.00625
0.05529
0.05671
0.07770
0.07609
0.05699
0.05616
0.07704
0.07781
-0.01663
-0.01833
0.04859
-0.01690
-0.01870
0.04998
-0.01771
0.05048
-0.01787
0.04951
0.05437
0.05890
0.07880
0.07480
0.05789
0.05726
0.07727
0.07838
-0.01760
-0.01867
0.04791
-0.02054
-0.02237
0.05166
-0.01886
0.05109
-0.02117
0.05184
0.04280
0.04309
0.07120
0.07650
0.06474
0.05240
0.06872
0.08453
-0.01267
-0.00957
0.04023
0.01288
-0.01289
0.01790
-0.01539
0.05584
-0.01814
0.01785
0.04505
0.05013
0.08108
0.07072
0.07720
0.04701
0.05409
0.07577
0.00011
-0.02135
0.02386
-0.01945
-0.01542
0.04883
-0.04443
0.02263
-0.01464
0.04468
0.05259
0.05614
0.07638
0.07290
0.05665
0.05310
0.07436
0.07807
-0.01515
-0.01629
0.04654
-0.01646
-0.01814
0.04920
-0.01655
0.04977
-0.01814
0.04619
0.05515
0.05586
0.07683
0.07636
0.05516
0.05556
0.07645
0.07624
-0.01358
-0.01512
0.04824
-0.01489
0.04842
-0.01384
-0.01528
0.04923
-0.01522
0.04905
0.05675
0.05605
0.07685
0.07767
0.05608
0.05656
0.07752
0.07707
-0.01474
-0.01618
0.05011
-0.01470
-0.01613
0.04944
-0.01610
0.04933
-0.01607
0.04987
0.05610
0.05655
0.07757
0.07685
0.05640
0.05616
0.07720
0.07725
-0.01472
-0.01613
0.04952
-0.01456
-0.01598
0.04980
-0.01610
0.04980
-0.01593
0.04933
0.05484
0.05651
0.07753
0.07621
0.05648
0.05503
0.07541
0.07750
-0.01426
-0.01568
0.04768
-0.01562
0.04980
-0.01431
-0.01567
0.04985
-0.01574
0.04878
0.05785
0.05639
0.07718
0.07826
0.05708
0.05692
0.07803
0.07773
-0.01777
-0.01907
0.05176
-0.01595
-0.01734
0.04970
-0.01906
0.05063
-0.01730
0.05004
0.05235
0.05152
0.07456
0.07537
0.05053
0.05628
0.07451
0.06788
-0.00714
-0.01092
0.04350
-0.00564
0.04728
-0.00907
-0.01188
0.04386
-0.00892
0.05047
0.05674
0.05577
0.07657
0.07769
0.05612
0.05650
0.07747
0.07710
-0.01484
-0.01630
0.05011
-0.01617
0.04938
-0.01470
-0.01612
0.04915
-0.01606
0.04983
0.05554
0.05571
0.07669
0.07655
0.05534
0.05594
0.07693
0.07646
-0.01370
-0.01517
0.04883
-0.01382
-0.01530
0.04914
-0.01509
0.04860
-0.01517
0.04929
0.05678
0.05768
0.07765
0.07704
0.05575
0.05697
0.07742
0.07696
-0.01648
-0.01776
0.05036
-0.01807
-0.01889
0.05250
-0.01763
0.04883
-0.02011
0.04932
0.05129
0.05496
0.07726
0.07386
0.05886
0.05001
0.06798
0.07801
-0.01064
-0.01310
0.04379
-0.01080
0.05252
-0.00816
-0.01182
0.04692
-0.00661
0.04574
0.05586
0.05663
0.07748
0.07673
0.05642
0.05614
0.07710
0.07744
-0.01457
-0.01594
0.04919
-0.01596
0.04969
-0.01475
-0.01620
0.05008
-0.01608
0.04942
0.05702
0.05636
0.07719
0.07795
0.05578
0.05649
0.07730
0.07674
-0.01594
-0.01731
0.05034
-0.01724
0.04903
-0.01608
-0.01744
0.04975
-0.01738
0.04989
0.05692
0.05618
0.07696
0.07788
0.05619
0.05668
0.07759
0.07719
-0.01483
-0.01628
0.05022
-0.01617
0.04942
-0.01487
-0.01634
0.04958
-0.01621
0.05001
0.05580
0.05675
0.07778
0.07654
0.05656
0.05579
0.07686
0.07745
-0.01451
-0.01593
0.04925
-0.01431
-0.01573
0.05001
-0.01589
0.04995
-0.01569
0.04896
0.05499
0.05677
0.07778
0.07609
0.05665
0.05518
0.07604
0.07770
-0.01417
-0.01556
0.04821
-0.01417
-0.01551
0.05011
-0.01563
0.04990
-0.01566
0.04864
0.04498
0.04643
0.07516
0.07821
0.06843
0.05340
0.07314
0.09054
-0.01494
-0.01169
0.04378
-0.01765
0.05808
0.01464
-0.01487
0.01706
-0.01872
0.01682
0.04935
0.04369
0.07556
0.07665
0.06464
0.06232
0.07467
0.07534
0.01282
-0.01347
0.02219
-0.01918
-0.01219
0.04573
-0.04102
0.00283
-0.02021
0.05608
0.05552
0.05679
0.07724
0.07715
0.05639
0.05688
0.07674
0.07680
-0.01546
-0.01686
0.04842
-0.01654
0.04991
-0.01694
-0.01969
0.04864
-0.01750
0.05191
-0.01452
-0.08470
0.18833
-0.08542
0.08354
0.02752
0.00161
0.00226
-0.01195
0.15101
-0.02823
-0.05331
0.05627
0.05257
0.07146
0.07421
0.05245
0.05594
0.07794
0.07428
-0.01547
-0.01659
0.05039
-0.01735
0.04550
-0.01345
-0.01360
0.04688
-0.01588
0.04840
0.05082
0.05916
0.07850
0.07039
0.05635
0.05332
0.07484
0.07791
-0.01122
-0.01145
0.04539
-0.01411
0.04863
-0.01485
-0.01646
0.05170
-0.01638
0.04696
0.05627
0.05613
0.07709
0.07722
0.05613
0.05632
0.07727
0.07704
-0.01449
-0.01586
0.04960
-0.01591
0.04947
-0.01444
-0.01581
0.04941
-0.01586
0.04964
0.05668
0.05592
0.07699
0.07769
0.05613
0.05693
0.07776
0.07686
-0.01502
-0.01622
0.04995
-0.01666
0.04960
-0.01501
-0.01621
0.04912
-0.01664
0.05032
0.05685
0.05624
0.07730
0.07778
0.05631
0.05703
0.07791
0.07695
-0.01533
-0.01661
0.05017
-0.01681
0.04982
-0.01527
-0.01657
0.04937
-0.01671
0.05038
0.05592
0.05515
0.07566
0.07666
0.05504
0.05578
0.07710
0.07629
-0.01472
-0.01591
0.04979
-0.01634
0.04803
-0.01393
-0.01531
0.04882
-0.01539
0.04899
-0.01982
-0.01944
-0.02023
-0.01724
0.08638
0.08441
-0.02177
-0.01479
0.08209
-0.01736
-0.02318
0.08950
-0.01961
-0.01793
0.08053
-0.01857
-0.01646
-0.01865
-0.01691
0.08527
0.08601
-0.01656
-0.01742
0.08497
-0.01740
-0.01737
0.08597
-0.01719
-0.01683
0.08491
-0.01970
-0.01610
-0.02126
-0.01402
0.08503
0.08519
-0.01645
-0.01755
0.08474
-0.01992
-0.01435
-0.01849
-0.01736
0.08495
0.08622
-0.01993
-0.01522
-0.01840
-0.01708
0.08627
0.08588
-0.01656
-0.01874
-0.01664
-0.01740
0.08537
0.08498
-0.01939
-0.01465
0.08400
-0.01632
-0.01837
-0.01638
-0.01752
0.08539
0.08506
-0.01849
-0.01680
0.08622
-0.01762
-0.01719
0.08619
-0.01694
-0.01668
0.08465
-0.01856
-0.01820
-0.01991
-0.01690
0.08559
0.08527
-0.01832
-0.01802
0.08521
-0.01731
-0.01662
0.08697
-0.01635
-0.02007
0.08602
-0.02090
-0.00346
0.00006
-0.05016
0.08012
0.06989
-0.00843
-0.01051
0.07533
-0.00413
-0.02210
0.08465
-0.00443
-0.03833
0.07592
0.02525
-0.08712
-0.01487
-0.01827
0.00886
0.08062
0.01404
-0.08615
-0.02280
-0.01270
0.03643
0.08555
-0.01363
-0.01857
0.08066
-0.01726
-0.01731
-0.01724
-0.01705
0.08585
0.08543
-0.01721
-0.01713
0.08544
-0.01722
-0.01732
0.08586
-0.01735
-0.01701
0.08555
-0.01729
-0.01716
-0.01710
-0.01728
0.08559
0.08546
-0.01707
-0.01710
-0.01689
-0.01767
0.08530
0.08573
-0.01726
-0.01764
0.08608
-0.01773
-0.01674
-0.01928
-0.01888
0.08319
0.08666
-0.01701
-0.01817
0.08597
-0.01773
-0.01691
0.08341
-0.01812
-0.01655
0.08504
-0.01696
-0.01745
-0.01703
-0.01805
0.08454
0.08616
-0.01801
-0.01657
0.08419
-0.01778
-0.01772
0.08598
-0.01786
-0.01667
0.08496
0.04949
0.04722
0.04680
0.04832
0.04862
0.04587
0.05231
0.04884
0.04026
0.10657
-0.03389
-0.02630
0.04460
0.04495
0.04886
0.04794
0.04805
0.04886
0.04858
0.04820
0.04831
0.04784
0.04845
0.04864
0.04943
0.05100
0.04233
0.04864
0.04842
0.04792
0.04740
0.04765
0.04909
0.04809
0.04802
0.04890
0.04660
0.05355
0.04419
0.04863
0.04857
0.04696
0.04873
0.04836
0.04808
0.04754
0.04867
0.04888
0.11485
-0.04290
-0.04857
0.05285
0.04589
0.04587
0.04638
0.04631
0.04940
0.04911
0.04776
0.04786
-0.02892
0.08091
-0.06324
-0.03496
-0.01089
0.09612
0.02860
-0.11456
-0.11137
-0.17861
-0.02653
-0.17079
0.11607
-0.20286
-0.00378
0.13391
-0.10949
0.23077
0.04631
-0.01526
-0.10081
-0.25095
0.27762
-0.26810
-0.03210
-0.12215
0.11403
-0.08142
-0.07722
-0.08392
-0.03996
0.01014
0.26343
-0.04135
-0.14750
-0.05400
0.11527
0.03488
-0.02703
0.09951
-0.10110
-0.02196
0.02612
0.08270
0.02923
-0.00195
0.01242
0.31318
0.19795
-0.05601
0.09398
0.17472
-0.08994
0.19830
-0.00101
0.01154
-0.08702
0.11368
-0.11527
0.04734
-0.08971
0.05952
-0.00493
0.00165
-0.10063
0.42113
0.31551
0.22325
0.07027
-0.08497
0.36720
0.15375
0.01723
-0.06324
-0.03340
-0.04425
0.00122
-0.11922
0.22736
0.02713
-0.07763
-0.16703
-0.05299
-0.15856
-0.03162
0.14592
-0.09060
-0.02226
0.00170
-0.19086
-0.20651
0.00950
0.15048
-0.10269
-0.05318
0.10763
-0.19546
-0.17746
0.19600
-0.13192
0.11920
0.01180
0.03179
0.15207
0.22373
-0.07010
-0.11324
-0.08680
-0.06395
0.00703
-0.10615
-0.10838
-0.00986
-0.16687
0.01529
-0.23494
0.00331
-0.18342
-0.03936
-0.19694
0.01957
-0.19246
-0.04860
-0.23917
0.04270
0.10000
