# vtk DataFile Version 3.0
Point representing Sub_cellular elem model
ASCII

DATASET UNSTRUCTURED_GRID
POINTS 741 float
0.00470 1.71796 0.64246 
0.00548 1.72972 -1.51154 
1.74583 1.06407 -0.43436 
1.74594 -1.08872 -0.43595 
0.00510 -1.75360 -1.51214 
0.00459 -1.74525 0.64174 
1.09504 -0.01187 1.31421 
-1.05980 -0.01531 1.32298 
1.08292 -0.01167 -2.17540 
-1.07042 -0.01203 -2.17790 
-1.73403 1.06041 -0.43574 
-1.73421 -1.08791 -0.43477 
0.00432 2.03651 -0.43449 
1.02860 1.64479 0.20004 
0.64266 1.00969 1.23729 
-0.61600 0.99986 1.23983 
-1.01745 1.63853 0.19984 
1.03153 1.64857 -1.06848 
0.64078 1.01488 -2.09490 
-0.62846 1.01467 -2.09655 
-1.02132 1.64715 -1.07029 
2.05772 -0.01213 -0.43564 
1.66563 0.62239 0.58945 
1.66688 0.62269 -1.46037 
1.03110 -1.67292 -1.06993 
1.02861 -1.67052 0.19784 
1.66575 -0.64714 0.58750 
1.66672 -0.64656 -1.46108 
0.00388 -2.06246 -0.43522 
0.64046 -1.03826 -2.09559 
-0.62846 -1.03836 -2.09668 
-1.02126 -1.67236 -1.06997 
0.64135 -1.03314 1.23448 
-0.61691 -1.02826 1.24292 
-1.01827 -1.66704 0.20124 
0.01992 0.57101 2.07929 
-1.64451 0.61532 0.59197 
-1.64522 -0.64530 0.59380 
0.00666 -0.01160 -2.48728 
-1.65578 0.62158 -1.46337 
-1.65547 -0.64704 -1.46303 
-2.04480 -0.01392 -0.43572 
0.00403 1.95105 0.13704 
0.52616 1.75186 0.46076 
0.32884 1.42676 0.98705 
-0.31436 1.42212 0.98742 
-0.51649 1.74721 0.46063 
0.00489 1.95846 -1.00631 
0.52895 1.75971 -1.32955 
0.32961 1.43661 -1.85328 
-0.31784 1.43646 -1.85409 
-0.51842 1.75917 -1.33068 
1.45119 1.40510 -0.11088 
1.45277 1.40620 -0.75760 
1.97631 0.55944 -0.43500 
1.77522 0.88255 0.08819 
1.77706 0.88319 -0.95767 
1.97643 -0.58382 -0.43592 
1.45262 -1.43079 -0.75927 
1.45134 -1.43026 -0.11297 
1.77551 -0.90731 0.08645 
1.77697 -0.90743 -0.95883 
0.52845 -1.78375 -1.33059 
0.00445 -1.98309 -1.00701 
0.32919 -1.46015 -1.85399 
-0.31803 -1.46011 -1.85440 
-0.51858 -1.78348 -1.33084 
0.52607 -1.77823 0.45899 
0.00373 -1.97822 0.13643 
0.32859 -1.45239 0.98496 
-0.31456 -1.44985 0.98761 
-0.51696 -1.77556 0.46130 
0.91677 0.51480 1.34491 
1.42955 0.31184 1.01079 
1.42975 -0.33645 1.00893 
0.91691 -0.53974 1.34096 
0.60092 -0.01132 1.58531 
-0.87821 0.50707 1.35201 
-0.87786 -0.53605 1.35728 
-0.56093 -0.01160 1.59027 
-1.40010 0.30584 1.01686 
-1.40027 -0.33670 1.01874 
0.90155 0.51196 -2.20543 
1.42496 0.31188 -1.88191 
1.42486 -0.33546 -1.88223 
0.90139 -0.53527 -2.20586 
0.57805 -0.01158 -2.40558 
-0.88899 0.51166 -2.20771 
-0.88892 -0.53553 -2.20773 
-0.56497 -0.01175 -2.40704 
-1.41315 0.31126 -1.88495 
-1.41301 -0.33594 -1.88486 
-1.43925 1.39986 -0.11151 
-1.44226 1.40365 -0.75943 
-1.76028 0.87693 0.08833 
-1.76616 0.88116 -0.95999 
-1.96375 0.55636 -0.43587 
-1.44219 -1.43005 -0.75871 
-1.43988 -1.42792 -0.11019 
-1.76095 -0.90575 0.08971 
-1.76589 -0.90756 -0.95937 
-1.96386 -0.58409 -0.43524 
0.55964 1.93454 -0.12865 
-0.55086 1.93179 -0.12915 
0.56087 1.93763 -0.73985 
-0.55145 1.93632 -0.74073 
0.90304 1.37792 0.77280 
1.05453 1.74859 -0.43410 
1.39750 1.19236 0.46526 
0.01351 1.03159 1.34380 
1.21251 0.88831 0.96019 
0.33081 0.53305 1.57394 
-0.88727 1.36862 0.77368 
-0.27623 0.52861 1.57684 
-1.18768 0.87789 0.96356 
-1.04463 1.74534 -0.43518 
-1.38121 1.18383 0.46615 
0.90644 1.38326 -1.64018 
1.40063 1.19430 -1.33437 
0.00632 1.03934 -2.19730 
1.21233 0.88886 -1.82867 
0.31219 0.54491 -2.38545 
-0.89523 1.38269 -1.64224 
-0.29908 0.54483 -2.38629 
-1.20070 0.88827 -1.83145 
-1.38990 1.19309 -1.33701 
1.95573 0.29354 0.11983 
1.95693 0.29367 -0.99104 
1.95586 -0.31790 0.11919 
1.95691 -0.31778 -0.99146 
1.76872 -0.01219 0.61201 
1.76861 -0.01192 -1.48515 
1.05434 -1.77381 -0.43593 
1.40031 -1.21832 -1.33559 
0.56042 -1.96260 -0.74119 
0.90598 -1.40700 -1.64122 
1.39760 -1.21760 0.46257 
0.55942 -1.96061 -0.13016 
0.90264 -1.40321 0.76991 
1.21217 -0.91349 0.95666 
1.21203 -0.91246 -1.82948 
-0.55179 -1.96186 -0.74078 
-0.55139 -1.95903 -0.12886 
0.00610 -1.06270 -2.19774 
0.31204 -0.56811 -2.38580 
-0.89510 -1.40693 -1.64213 
-0.29914 -0.56820 -2.38650 
-1.20046 -0.91270 -1.83127 
-1.04502 -1.77215 -0.43449 
-1.38954 -1.21830 -1.33656 
0.01304 -1.05651 1.34251 
0.32548 -0.54612 1.57575 
-0.88810 -1.39789 0.77577 
-0.27791 -0.55319 1.58340 
-1.18832 -0.90785 0.96702 
-1.38221 -1.21322 0.46841 
-1.74615 -0.01511 0.61673 
-1.93920 0.28977 0.12128 
-1.93948 -0.31884 0.12183 
-1.75730 -0.01280 -1.48786 
-1.94564 0.29207 -0.99310 
-1.94552 -0.31868 -0.99285 
0.00418 1.85070 0.40077 
0.26449 1.75159 0.56230 
0.16603 1.58904 0.82426 
-0.15485 1.58704 0.82428 
-0.25524 1.74898 0.56221 
0.00519 1.86081 -1.27014 
0.26646 1.76157 -1.43124 
0.16706 1.60055 -1.69238 
-0.15568 1.60045 -1.69276 
-0.25570 1.76133 -1.43183 
1.61583 1.24463 -0.27311 
1.61658 1.24503 -0.59545 
1.87760 0.82299 -0.43463 
1.77724 0.98394 -0.17375 
1.77830 0.98438 -0.69522 
1.87774 -0.84750 -0.43594 
1.61658 -1.26967 -0.59712 
1.61598 -1.26951 -0.27496 
1.77748 -1.00868 -0.17540 
1.77830 -1.00882 -0.69661 
0.26600 -1.78550 -1.43204 
0.00478 -1.88498 -1.27079 
0.16665 -1.62422 -1.69303 
-0.15598 -1.62417 -1.69320 
-0.25599 -1.78537 -1.43222 
0.26439 -1.77837 0.56100 
0.00398 -1.87809 0.40017 
0.16594 -1.61562 0.82292 
-0.15494 -1.61449 0.82395 
-0.25548 -1.77688 0.56225 
1.02316 0.24952 1.34426 
1.27395 0.14851 1.17698 
1.27463 -0.17245 1.17544 
1.02530 -0.27358 1.34082 
0.85959 -0.01182 1.45903 
-0.98449 0.24466 1.35280 
-0.98359 -0.27470 1.35621 
-0.82132 -0.01442 1.46737 
-1.24053 0.14420 1.18497 
-1.24031 -0.17534 1.18644 
1.00295 0.24937 -2.20719 
1.26387 0.14962 -2.04593 
1.26382 -0.17307 -2.04608 
1.00287 -0.27268 -2.20741 
0.84166 -0.01161 -2.30698 
-0.99038 0.24904 -2.20963 
-0.99032 -0.27301 -2.20964 
-0.82884 -0.01188 -2.30902 
-1.25169 0.14915 -2.04876 
-1.25163 -0.17349 -2.04874 
-1.60388 1.24023 -0.27412 
-1.60555 1.24191 -0.59708 
-1.76421 0.97933 -0.17450 
-1.76711 0.98161 -0.69706 
-1.86541 0.81951 -0.43583 
-1.60558 -1.26890 -0.59622 
-1.60428 -1.26800 -0.27299 
-1.76467 -1.00748 -0.17335 
-1.76702 -1.00856 -0.69627 
-1.86556 -0.84713 -0.43497 
0.00411 2.01393 -0.14418 
0.00459 2.01785 -0.72489 
0.28853 2.01040 -0.28587 
-0.28000 2.00919 -0.28621 
0.28899 2.01220 -0.58278 
-0.28001 2.01135 -0.58321 
0.78359 1.71611 0.33885 
1.25351 1.54005 0.04850 
0.80807 1.81161 0.03598 
0.98346 1.52676 0.49684 
1.04843 1.72148 -0.11239 
1.22374 1.43679 0.34797 
0.49026 1.23288 1.12558 
0.78805 0.77186 1.30870 
0.78715 1.20479 1.02135 
0.33586 1.03004 1.31508 
0.93864 0.96882 1.11233 
0.48480 0.78761 1.41973 
-0.47059 1.22533 1.12673 
-0.75378 0.76122 1.31390 
-0.30903 1.02387 1.31649 
-0.76702 1.19475 1.02302 
-0.44788 0.77925 1.42287 
-0.91253 0.95766 1.11579 
-0.77319 1.71023 0.33870 
-1.24182 1.53409 0.04815 
-0.79847 1.80712 0.03551 
-0.97057 1.51883 0.49712 
-1.03819 1.71685 -0.11304 
-1.21027 1.42903 0.34824 
0.78669 1.72182 -1.20746 
1.25588 1.54225 -0.91695 
0.81019 1.81539 -0.90443 
1.05004 1.72356 -0.75590 
0.98713 1.53164 -1.36516 
1.22711 1.43984 -1.21661 
0.48919 1.23948 -1.98897 
0.77967 0.76983 -2.16779 
0.78885 1.21009 -1.88587 
0.32822 1.03407 -2.17089 
0.93739 0.96994 -1.97735 
0.47676 0.79392 -2.26229 
-0.47711 1.23929 -1.99021 
-0.76718 0.76958 -2.16979 
-0.31566 1.03398 -2.17175 
-0.77706 1.20973 -1.88780 
-0.46399 0.79379 -2.26356 
-0.92540 0.96955 -1.97966 
-0.77635 1.72088 -1.20900 
-1.24562 1.54028 -0.91885 
-0.80034 1.81393 -0.90578 
-1.04010 1.72138 -0.75738 
-0.97647 1.53074 -1.36718 
-1.21660 1.43854 -1.21887 
2.03718 0.27821 -0.43535 
2.03725 -0.30250 -0.43583 
2.03165 0.13632 -0.15137 
2.03234 0.13639 -0.71980 
2.03170 -0.16063 -0.15164 
2.03235 -0.16058 -0.72002 
1.73769 0.76089 0.34526 
1.56169 0.47124 0.81342 
1.54712 0.91844 0.54551 
1.45727 0.77062 0.78525 
1.83270 0.45827 0.36844 
1.74232 0.31000 0.60748 
1.73971 0.76145 -1.21544 
1.56084 0.47125 -1.68485 
1.54941 0.91936 -1.41539 
1.45795 0.77098 -1.65545 
1.83408 0.45845 -1.23967 
1.74261 0.31004 -1.47968 
1.25557 -1.56675 -0.91854 
0.78619 -1.74601 -1.20872 
1.04970 -1.74833 -0.75755 
1.22671 -1.46400 -1.21798 
0.80974 -1.84001 -0.90588 
0.98665 -1.55565 -1.36641 
1.25361 -1.56550 0.04628 
0.78354 -1.74214 0.33677 
1.04837 -1.74706 -0.11439 
1.22381 -1.46227 0.34544 
0.80798 -1.83757 0.03410 
0.98337 -1.55239 0.49432 
1.73792 -0.78563 0.34341 
1.56175 -0.49599 0.81142 
1.83285 -0.48276 0.36726 
1.74238 -0.33448 0.60646 
1.54724 -0.94347 0.54297 
1.45724 -0.79568 0.78240 
1.73956 -0.78550 -1.21636 
1.56070 -0.49497 -1.68535 
1.83400 -0.48245 -1.24025 
1.74254 -0.33389 -1.48005 
1.54917 -0.94329 -1.41638 
1.45771 -0.79473 -1.65623 
0.00414 -2.04308 -0.72563 
0.00373 -2.04058 -0.14485 
0.28855 -2.03761 -0.58388 
0.28817 -2.03646 -0.28700 
-0.28044 -2.03711 -0.58356 
-0.28047 -2.03575 -0.28646 
0.48881 -1.26292 -1.98970 
0.77942 -0.79317 -2.16838 
0.78844 -1.23362 -1.88673 
0.93706 -0.99341 -1.97812 
0.32793 -1.05741 -2.17148 
0.47653 -0.81719 -2.26282 
-0.47719 -1.26294 -1.99042 
-0.76713 -0.79335 -2.16986 
-0.31578 -1.05745 -2.17205 
-0.77699 -1.23366 -1.88782 
-0.46403 -0.81730 -2.26376 
-0.92527 -0.99357 -1.97962 
-0.77639 -1.74558 -1.20892 
-1.24553 -1.56607 -0.91832 
-0.80050 -1.83927 -0.90560 
-0.97632 -1.55539 -1.36697 
-1.04023 -1.74732 -0.75691 
-1.21636 -1.46371 -1.21846 
0.48990 -1.25767 1.12256 
0.78729 -0.79666 1.30462 
0.78635 -1.22945 1.01824 
0.93791 -0.99375 1.10853 
0.33578 -1.05421 1.31198 
0.48207 -0.80853 1.41826 
-0.47136 -1.25371 1.12765 
-0.75413 -0.78950 1.31911 
-0.31059 -1.05155 1.31686 
-0.76778 -1.22386 1.02546 
-0.44946 -0.80607 1.42724 
-0.91310 -0.98697 1.11962 
-0.77389 -1.73879 0.33982 
-1.24261 -1.56241 0.04959 
-0.79913 -1.83503 0.03635 
-1.03882 -1.74457 -0.11202 
-0.97145 -1.54789 0.49888 
-1.21123 -1.45804 0.35015 
0.13419 -0.51461 1.79258 
-0.16169 -0.49156 2.14856 
0.50008 0.06909 1.85249 
0.42327 -0.41310 2.48554 
-0.33448 -0.31902 1.85424 
-0.48010 -0.08357 2.05904 
-1.53654 0.46428 0.81756 
-1.72003 0.75436 0.34647 
-1.43412 0.76171 0.78825 
-1.52808 0.91015 0.54715 
-1.72001 0.30477 0.61113 
-1.81384 0.45297 0.37050 
[...]
CELL_DATA 2215
SCALARS Strain double 
LOOKUP_TABLE default 
-0.08453
-0.09049
-0.08655
-0.08680
-0.09095
-0.08798
-0.08729
-0.08776
-0.08759
-0.08732
-0.08772
-0.08832
-0.08783
-0.08880
-0.08801
-0.08740
-0.08801
-0.08778
-0.08904
-0.08850
-0.08771
-0.08767
-0.08737
-0.08786
-0.08737
-0.09007
-0.08470
-0.08673
-0.08627
-0.09105
-0.09443
-0.08134
-0.07696
-0.09646
-0.08225
-0.09597
-0.09564
-0.07440
-0.07781
-0.07970
-0.08744
-0.08761
-0.08774
-0.08737
-0.08762
-0.08732
-0.08756
-0.08742
-0.08764
-0.08720
-0.08836
-0.08786
-0.08634
-0.08721
-0.08899
-0.08854
-0.08780
-0.08631
-0.08621
-0.08940
-0.03325
-0.03386
0.06833
0.06848
0.06871
0.06858
-0.03557
-0.03478
0.06749
0.07095
0.07012
0.06670
-0.02910
-0.04466
0.07875
0.05299
0.07526
0.08866
-0.03336
-0.05266
0.05348
0.09005
0.10332
0.07632
-0.03726
-0.03628
0.06750
0.07531
0.07304
0.06598
-0.03416
-0.03436
0.06931
0.06901
0.06895
0.06944
-0.03409
-0.03403
0.06925
0.06985
0.06973
0.06939
-0.03393
-0.03388
0.07002
0.06919
0.06930
0.07004
-0.03385
-0.03395
0.06919
0.06953
0.06918
0.06930
-0.03366
-0.03356
0.06826
0.06783
0.06752
0.06838
-0.03774
-0.03884
0.06873
0.06925
0.06913
0.06962
-0.03460
-0.03452
0.06983
0.06912
0.06883
0.06996
-0.03446
-0.03441
0.06871
0.06982
0.06982
0.06876
-0.03421
-0.03494
0.06931
0.06686
0.06755
0.07017
-0.03796
-0.03888
0.06783
0.07063
0.06983
0.06825
-0.03494
-0.03480
0.06905
0.07004
0.06997
0.06925
-0.03367
-0.03324
0.06941
0.06792
0.06805
0.06911
-0.03387
-0.03386
0.06907
0.06958
0.06964
0.06920
-0.03429
-0.03423
0.06971
0.06979
0.06976
0.06968
-0.03417
-0.03439
0.06869
0.07022
0.07060
0.06888
-0.02707
-0.04847
0.08259
0.07769
0.04896
0.09911
-0.03034
-0.05138
0.04906
0.09265
0.10803
0.07395
-0.03733
-0.03622
0.06776
0.07358
0.07573
0.06599
-0.00461
0.09852
0.15096
0.34763
0.04922
-0.03000
-0.03032
0.07181
0.06289
0.06300
0.07111
-0.03028
-0.03056
0.07374
0.06163
0.06199
0.07315
-0.03398
-0.03396
0.06966
0.06948
0.06947
0.06970
-0.03434
-0.03430
0.07004
0.06953
0.06958
0.07005
-0.03339
-0.03322
0.06932
0.06923
0.06937
0.06918
-0.03602
-0.03612
0.06977
0.07133
0.07082
0.06946
-0.06312
-0.04330
0.07758
0.07790
0.03236
0.03181
-0.06811
-0.04690
0.07762
0.08278
0.03603
0.03200
-0.06478
-0.04445
0.08347
0.07402
0.03041
0.03715
-0.06532
-0.04613
0.07298
0.08712
0.04191
0.02866
-0.06934
-0.04854
0.07781
0.08553
0.03797
0.03199
-0.06599
-0.04511
0.07964
0.07979
0.03398
0.03392
-0.06538
-0.04483
0.07971
0.07936
0.03369
0.03406
-0.06574
-0.04500
0.07947
0.08033
0.03455
0.03400
-0.06556
-0.04482
0.08038
0.07935
0.03387
0.03470
-0.06532
-0.04465
0.07987
0.07928
0.03374
0.03421
-0.06582
-0.04529
0.07916
0.07826
0.03268
0.03335
-0.06625
-0.04540
0.07915
0.07970
0.03391
0.03352
-0.06563
-0.04470
0.07936
0.07822
0.03202
0.03341
-0.06745
-0.04756
0.07862
0.07974
0.03420
0.03354
-0.06611
-0.04547
0.07986
0.07870
0.03351
0.03440
-0.06524
-0.04443
0.07855
0.07854
0.03239
0.03278
-0.06604
-0.04534
0.07856
0.08001
0.03430
0.03312
-0.06572
-0.04495
0.07837
0.07896
0.03302
0.03244
-0.06774
-0.04785
0.07888
0.07953
0.03432
0.03363
-0.06658
-0.04587
0.07897
0.08012
0.03462
0.03370
-0.06581
-0.04519
0.08018
0.07931
0.03369
0.03446
-0.06563
-0.04479
0.08010
0.07913
0.03342
0.03424
-0.06538
-0.04470
0.07935
0.07996
0.03421
0.03379
-0.06588
-0.04517
0.08001
0.08000
0.03434
0.03436
-0.06543
-0.04485
0.07924
0.08005
0.03452
0.03371
-0.06753
-0.04621
0.07738
0.08266
0.03551
0.03175
-0.06338
-0.04347
0.07730
0.07863
0.03315
0.03155
-0.06474
-0.04425
0.08411
0.07386
0.03080
0.03855
-0.06465
-0.04541
0.07292
0.08731
0.04268
0.02880
-0.06941
-0.04856
0.07844
0.08544
0.03797
0.03250
-0.05108
-0.03797
0.07606
0.06255
0.02367
0.03104
-0.06976
-0.05030
0.07505
0.08136
0.03726
0.03228
-0.06872
-0.04993
0.08299
0.07251
0.02985
0.03906
-0.04587
-0.03701
0.07567
0.05626
0.02297
0.03462
-0.04432
-0.24657
0.13056
0.14710
0.02524
0.02556
-0.06004
-0.05202
0.06459
0.09019
0.05336
0.03589
-0.06399
-0.05506
0.07118
0.09269
0.05465
0.04043
-0.04400
0.10965
0.11321
0.02530
0.02528
-0.06184
-0.04095
0.08490
0.07301
0.02764
0.03748
-0.06243
-0.04132
0.08788
0.07187
0.02577
0.04018
-0.06545
-0.04481
0.07975
0.07980
0.03399
0.03421
-0.06578
-0.04524
0.07958
0.08018
0.03444
0.03374
-0.06595
-0.04547
0.08020
0.07967
0.03390
0.03451
-0.06536
-0.04469
0.07976
0.07963
0.03381
0.03415
-0.06558
-0.04486
0.07991
0.07976
0.03416
0.03430
-0.06533
-0.04468
0.07968
0.08020
0.03448
0.03395
-0.06563
-0.04501
0.08014
0.07988
0.03428
0.03451
-0.06543
-0.04477
0.07974
0.08010
0.03438
0.03410
-0.06576
-0.04515
0.08025
0.08001
0.03440
0.03466
-0.06513
-0.04436
0.07974
0.07990
0.03412
0.03395
-0.06669
-0.04645
0.08180
0.07724
0.03263
0.03740
-0.06578
-0.04493
0.08064
0.07902
0.03329
0.03427
-0.06343
-0.04186
0.07633
0.08004
0.03403
0.03027
-0.06549
-0.04502
0.07909
0.08030
0.03453
0.03358
-0.06731
-0.04677
0.08004
0.08072
0.03567
0.03424
-0.06643
-0.04549
0.08172
0.07890
0.03320
0.03541
-0.06622
-0.04618
0.08265
0.07642
0.03216
0.03802
-0.06352
-0.04204
0.07534
0.08160
0.03528
0.02950
-0.06434
-0.04386
0.07892
0.07943
0.03373
0.03332
-0.06770
-0.04704
0.08165
0.07978
0.03470
0.03567
0.07057
0.07032
0.01908
0.02153
0.01773
0.01627
0.07078
0.07053
0.01832
0.02286
0.01857
0.01542
0.07147
0.07167
0.02009
0.02015
0.01727
0.01669
0.07133
0.07153
0.02015
0.02036
0.01774
0.01687
0.07467
0.07677
0.01833
0.01682
0.01723
0.01241
0.07208
0.07171
0.01929
0.02005
0.01658
0.01644
0.06913
0.06993
0.01933
0.02064
0.01753
0.01536
0.07446
0.07499
0.02207
0.02846
0.02530
0.01489
0.07395
0.07254
0.01427
0.02093
0.01456
0.01381
0.11257
-0.16789
0.06500
0.02558
0.08783
0.02502
0.08529
0.08088
0.01502
0.01726
0.00926
0.01570
0.13073
-0.01696
0.08713
0.02524
0.06975
0.02532
0.07708
0.07562
0.02674
0.01195
0.00790
0.02432
0.07392
0.07277
0.01952
0.01934
0.01577
0.01670
0.06681
0.06567
0.02519
0.02017
0.01666
0.02346
0.07151
0.07162
0.02045
0.02073
0.01739
0.01736
0.07207
0.07220
0.01988
0.02013
0.01719
0.01677
0.07245
0.07250
0.02044
0.02030
0.01721
0.01735
0.07207
0.07187
0.02017
0.02069
0.01744
0.01687
0.07201
0.07211
0.02063
0.02048
0.01727
0.01752
0.07161
0.07158
0.02101
0.02055
0.01743
0.01781
0.07190
0.07196
0.02077
0.02065
0.01742
0.01757
0.07255
0.07255
0.02019
0.02070
0.01748
0.01697
0.07188
0.07196
0.02028
0.02088
0.01777
0.01698
0.07082
0.07110
0.01770
0.02051
0.01779
0.01381
0.07066
0.07100
0.01972
0.02089
0.01784
0.01662
0.06985
0.06991
0.01823
0.02099
0.01795
0.01456
0.07109
0.07132
0.01922
0.02103
0.01789
0.01623
0.07339
0.07374
0.01744
0.01593
0.01314
0.01418
0.07255
0.07258
0.01984
0.02007
0.01675
0.01644
0.07124
0.07141
0.02059
0.01937
0.01633
0.01725
0.07234
0.07240
0.01958
0.02020
0.01714
0.01652
0.07229
0.07217
0.02007
0.01966
0.01641
0.01705
0.07135
0.07145
0.02075
0.02046
0.01722
0.01758
0.06957
0.07073
0.01833
0.02050
0.01787
0.01440
0.07021
0.07031
0.02101
0.01989
0.01704
0.01734
0.07439
0.07780
0.01828
0.01687
0.01793
0.01183
0.07225
0.07442
0.02193
0.01375
0.01305
0.01473
0.07190
0.07200
0.02081
0.01997
0.01665
0.01760
0.07073
0.07095
0.02036
0.02112
0.01838
0.01695
0.07131
0.07092
0.01803
0.02306
0.01901
0.01512
0.07219
0.07222
0.02019
0.02065
0.01747
0.01710
0.07182
0.07191
0.02053
0.02064
0.01747
0.01740
0.07238
0.07251
0.02062
0.02012
0.01702
0.01734
0.07225
0.07223
0.02061
0.02039
0.01716
0.01742
0.07211
0.07198
0.02090
0.02035
0.01709
0.01783
0.07375
0.07470
0.01915
0.01929
0.01664
0.01550
0.07152
0.07163
0.02138
0.02020
0.01719
0.01798
0.07631
0.07796
0.02401
0.03042
0.02944
0.01527
0.14132
0.09546
0.08719
0.02509
0.11258
0.02586
0.08658
0.08151
0.01435
0.01799
0.00954
0.01544
0.13933
-0.08060
0.08064
0.02503
0.08281
0.02528
0.07732
0.07704
0.02958
0.01019
0.00698
0.02604
0.06632
0.06465
0.02586
0.02105
0.01703
0.02446
0.06572
0.06536
0.02247
0.02454
0.02054
0.01888
0.07306
0.07264
0.01648
0.02258
0.01997
0.01321
0.07498
0.07439
0.01598
0.02143
0.01859
0.01304
0.07206
0.07198
0.02105
0.02019
0.01699
0.01801
0.07269
0.07294
0.01992
0.02034
0.01703
0.01672
0.07166
0.07175
0.01974
0.02164
0.01820
0.01666
0.06901
0.06918
-0.00810
-0.00872
0.07446
-0.00313
-0.00690
0.06534
-0.00961
-0.00334
0.07574
-0.00167
-0.01083
-0.00211
-0.00676
0.07102
0.07120
-0.00563
-0.00570
0.07070
-0.00619
-0.00587
0.07153
-0.00535
-0.00586
0.07056
-0.00602
-0.00529
-0.00621
-0.00568
0.07022
0.07012
-0.00680
-0.00695
0.07091
-0.00596
-0.00635
0.07087
0.06974
-0.00757
-0.00630
-0.00583
-0.00625
-0.00651
-0.00571
0.07023
0.06994
-0.00749
-0.00690
0.06960
0.07117
-0.00573
-0.00684
0.07083
-0.00641
-0.00758
-0.00561
-0.00617
-0.00539
-0.00627
0.07138
0.07067
-0.00603
-0.00547
0.07061
-0.00616
-0.00556
0.07117
-0.00576
-0.00609
0.07117
-0.00556
-0.00554
-0.00564
-0.00611
0.06874
0.07474
-0.00342
-0.00719
0.06982
-0.00741
-0.00889
0.06534
-0.00929
-0.00251
0.07564
-0.00143
-0.01082
-0.00224
-0.00619
0.05556
0.09223
-0.01647
-0.03628
0.06564
0.00203
-0.00885
0.04853
-0.01339
0.00518
0.10090
-0.01829
-0.04711
-0.02386
-0.02938
0.08538
0.06974
-0.01518
-0.00874
0.08314
0.07375
-0.00942
-0.00663
-0.01773
-0.01811
0.06091
-0.00734
-0.00355
-0.00961
-0.00044
0.07089
0.07113
-0.00584
-0.00578
0.07133
-0.00553
-0.00605
0.07096
-0.00590
-0.00546
0.07099
-0.00601
-0.00579
-0.00569
-0.00558
0.07097
0.07139
-0.00551
-0.00589
0.07140
0.07106
-0.00563
-0.00535
-0.00548
-0.00579
0.07119
-0.00549
-0.00530
-0.00574
-0.00588
0.07229
0.06914
-0.00669
-0.00357
0.06991
-0.00675
-0.00540
0.07108
-0.00639
-0.00828
0.07161
-0.00559
-0.00680
-0.00433
-0.00555
0.07315
0.06991
-0.00654
-0.00429
0.06823
-0.00738
-0.00315
0.07241
-0.00542
-0.00893
0.07093
-0.00636
-0.00710
-0.00484
-0.00426
0.05504
0.05469
0.07545
0.07572
0.05570
0.05572
0.07681
0.07686
-0.01423
-0.01501
0.04871
-0.01393
-0.01451
0.04828
-0.01608
0.04877
-0.01592
0.04890
0.05749
0.05387
0.07507
0.07930
0.05441
0.05635
0.07708
0.07503
-0.01564
-0.01745
0.05015
-0.01516
-0.01812
0.04586
-0.01658
0.04822
-0.01618
0.04974
0.04881
0.05458
0.07948
0.07340
0.05005
0.07345
0.07945
0.05799
-0.02123
-0.01632
0.05108
0.00651
-0.01182
0.03342
-0.01624
0.04789
-0.03749
0.01494
0.06395
0.04757
0.07209
0.08664
0.07976
0.06573
0.07618
0.08856
-0.00157
-0.01616
0.04560
-0.02639
-0.01857
0.05027
-0.04919
0.01972
-0.02625
0.06001
0.06008
0.05350
0.07520
0.08311
0.05434
0.06079
0.08001
0.07405
-0.01691
-0.01872
0.05185
-0.01685
-0.02000
0.04414
-0.01769
0.04842
-0.01743
0.05618
0.05583
0.05624
0.07709
0.07673
0.05607
0.05571
0.07668
0.07715
-0.01499
-0.01618
0.04933
-0.01663
0.04922
-0.01464
-0.01586
0.04967
-0.01623
0.04907
0.05664
0.05616
0.07694
0.07770
0.05609
0.05651
0.07732
0.07716
-0.01452
-0.01599
0.04982
-0.01461
-0.01607
0.04961
-0.01585
0.04929
-0.01595
0.04993
0.05605
0.05687
0.07781
0.07685
0.05673
0.05605
0.07707
0.07770
-0.01445
-0.01591
0.04949
-0.01440
-0.01585
0.05020
-0.01579
0.05004
-0.01575
0.04930
0.05606
0.05627
0.07715
0.07677
0.05571
0.05618
0.07763
0.07677
-0.01471
-0.01601
0.04988
-0.01628
0.04881
-0.01420
-0.01555
0.04966
-0.01568
0.04931
0.05414
0.05536
0.07640
0.07553
0.05473
0.05475
0.07557
0.07598
-0.01411
-0.01572
0.04702
-0.01404
-0.01555
0.04878
-0.01547
0.04782
-0.01542
0.04831
0.05639
0.05588
0.07601
0.07714
0.05682
0.05531
0.07575
0.07819
-0.01848
-0.01853
0.05009
-0.02177
0.04817
-0.01908
-0.01938
0.05013
-0.02166
0.04791
0.05580
0.05670
0.07746
0.07636
0.05663
0.05577
0.07694
0.07767
-0.01506
-0.01653
0.04941
-0.01636
0.04987
-0.01512
-0.01659
0.05016
-0.01640
0.04884
0.05655
0.05541
0.07623
0.07750
0.05568
0.05663
0.07760
0.07662
-0.01518
-0.01665
0.04983
-0.01478
-0.01625
0.04885
-0.01652
0.04906
-0.01612
0.04995
0.05459
0.05535
0.07621
0.07552
0.05676
0.05387
0.07496
0.07871
-0.01496
-0.01601
0.04822
-0.01457
-0.01587
0.04881
-0.01669
0.04953
-0.01762
0.04574
0.05675
0.05562
0.07606
0.07702
0.05364
0.05816
0.07944
0.07423
-0.01853
-0.01909
0.05058
-0.02063
0.04659
-0.01923
-0.01931
0.04991
-0.02242
0.04896
0.05684
0.05595
0.07661
0.07766
0.05596
0.05674
0.07772
0.07704
-0.01545
-0.01700
0.05023
-0.01666
0.04911
-0.01533
-0.01685
0.04945
-0.01658
0.05002
0.05519
0.05620
0.07739
0.07622
0.05583
0.05430
0.07513
0.07645
-0.01435
-0.01603
0.04842
-0.01530
0.04949
-0.01360
-0.01543
0.04928
-0.01438
0.04782
0.05640
0.05596
0.07677
0.07740
0.05590
0.05638
0.07725
0.07698
-0.01433
-0.01574
0.04966
-0.01571
0.04910
-0.01440
-0.01580
0.04939
-0.01579
0.04976
0.05652
0.05651
0.07746
0.07748
0.05647
0.05663
0.07753
0.07737
-0.01475
-0.01621
0.04984
-0.01478
-0.01624
0.04977
-0.01610
0.04981
-0.01612
0.05004
0.05701
0.05578
0.07655
0.07769
0.05538
0.05730
0.07876
0.07649
-0.01491
-0.01609
0.05077
-0.01468
-0.01592
0.04923
-0.01662
0.04839
-0.01627
0.05034
0.04759
0.05528
0.08004
0.07389
0.04981
0.08203
0.08048
0.05497
-0.02254
-0.01591
0.05208
-0.01578
0.04775
0.01278
-0.01079
0.03324
-0.05081
0.00194
0.06303
0.04567
0.07274
0.08655
0.07477
0.07100
0.08613
0.08865
0.00554
-0.01520
0.04180
-0.02582
-0.01719
0.04934
-0.04748
0.01115
-0.02774
0.06287
0.06030
0.05395
0.07568
0.08312
0.05423
0.06143
0.08078
0.07358
-0.01704
-0.01886
0.05233
-0.01772
0.04852
-0.01685
-0.02020
0.04427
-0.01707
0.05702
0.03309
-0.11378
-0.01499
0.13081
0.05444
-0.10686
-0.06879
0.13774
0.09991
0.00924
0.08979
0.20345
0.04890
0.05888
0.08128
0.07007
0.05716
0.05101
0.07210
0.07801
-0.00955
-0.01121
0.04167
-0.01163
0.05080
-0.01139
-0.01255
0.05124
-0.01324
0.04439
0.04738
0.06124
0.08369
0.06896
0.05870
0.05012
0.07103
0.07979
-0.00891
-0.01017
0.04036
-0.01124
0.05190
-0.01245
-0.01395
0.05326
-0.01406
0.04392
0.05629
0.05647
0.07736
0.07720
0.05649
0.05626
0.07719
0.07748
-0.01442
-0.01586
0.04961
-0.01579
0.04977
-0.01449
-0.01591
0.04982
-0.01586
0.04955
0.05649
0.05685
0.07774
0.07742
0.05680
0.05613
0.07696
0.07775
-0.01487
-0.01626
0.04978
-0.01620
0.05016
-0.01485
-0.01626
0.05027
-0.01617
0.04947
0.05619
0.05605
0.07711
0.07725
0.05602
0.05589
0.07670
0.07685
-0.01389
-0.01543
0.04942
-0.01511
0.04951
-0.01379
-0.01534
0.04931
-0.01499
0.04933
0.05797
0.05631
0.07750
0.07838
0.05664
0.05775
0.07916
0.07719
-0.01758
-0.01887
0.05186
-0.01911
0.05034
-0.01576
-0.01710
0.04943
-0.01725
0.05070
-0.01544
-0.01910
-0.01469
-0.02015
0.08359
0.08384
-0.01988
-0.01857
0.08825
-0.01319
-0.01555
0.08008
-0.01907
-0.02166
0.09357
-0.01754
-0.01721
-0.01749
-0.01717
0.08531
0.08538
-0.01691
-0.01727
0.08514
-0.01736
-0.01720
0.08612
-0.01710
-0.01673
0.08509
-0.01754
-0.01806
-0.01728
-0.01889
0.08518
0.08359
-0.01767
-0.01777
0.08564
-0.01728
-0.01969
-0.01694
-0.01781
0.08504
0.08428
-0.01681
-0.01954
-0.01670
-0.01831
0.08402
0.08464
-0.01790
-0.01715
-0.01754
-0.01816
0.08451
0.08590
-0.01733
-0.01961
0.08441
-0.01766
-0.01740
-0.01727
-0.01694
0.08589
0.08501
-0.01693
-0.01713
0.08470
-0.01700
-0.01748
0.08578
-0.01750
-0.01702
0.08589
-0.01835
-0.01583
-0.01930
-0.01883
0.08338
0.08818
-0.01475
-0.02031
0.08446
-0.01244
-0.01447
0.07995
-0.01853
-0.02162
0.09356
-0.01261
-0.02534
0.02439
-0.08699
0.08531
0.02340
-0.02403
-0.02203
0.08830
-0.02591
-0.01125
0.08471
0.03943
-0.11145
0.00230
0.00862
-0.05142
-0.02354
-0.01449
0.03303
0.09264
0.00106
-0.04563
-0.02606
-0.01290
0.04979
0.09442
-0.01357
-0.01552
0.07870
-0.01700
-0.01743
-0.01712
-0.01712
0.08548
0.08562
-0.01747
-0.01767
0.08606
-0.01762
-0.01690
0.08550
-0.01700
-0.01716
0.08544
-0.01696
-0.01697
-0.01693
-0.01741
0.08548
0.08606
-0.01725
-0.01706
-0.01725
-0.01673
0.08585
0.08560
-0.01741
-0.01666
0.08570
-0.01844
-0.01775
-0.01816
-0.01391
0.08696
0.08115
-0.01699
-0.01722
0.08520
-0.01507
-0.01995
0.08612
-0.01721
-0.01826
0.08632
-0.01825
-0.01833
-0.01768
-0.01608
0.08794
0.08493
-0.01747
-0.01359
0.08028
-0.01571
-0.02042
0.08792
-0.01596
-0.01853
0.08527
0.04725
0.04773
0.04840
0.04747
0.04728
0.04942
0.04811
0.04515
0.04934
0.09247
-0.02325
-0.00420
0.05711
0.04969
0.04099
0.04790
0.04851
0.04837
0.04874
0.04844
0.04830
0.04800
0.04892
0.04846
0.04645
0.04541
0.04937
0.04731
0.04767
0.04897
0.04795
0.04845
0.04707
0.04872
0.04771
0.04831
0.04540
0.04750
0.04976
0.04682
0.04771
0.05016
0.04853
0.04822
0.04857
0.04890
0.04839
0.04807
0.10747
-0.03636
-0.01556
0.05861
0.05003
0.04038
0.04302
0.04946
0.05122
0.04816
0.04918
0.04806
-0.11322
-0.07918
-0.13932
0.14730
0.14330
0.02333
-0.15082
-0.03498
-0.04296
0.02621
0.09867
0.05327
-0.09162
0.00765
-0.01870
-0.13004
0.00697
-0.10230
0.08593
-0.13439
-0.03431
0.09927
0.17919
0.09599
-0.06419
0.16162
0.16042
0.09099
-0.06613
0.08411
0.10290
-0.07256
0.06282
-0.04985
0.26966
-0.06291
-0.01181
0.22845
-0.00444
0.03275
0.05909
-0.17750
-0.05322
-0.11441
-0.14583
0.06829
0.04956
0.02075
0.13170
0.09593
-0.06494
-0.08039
-0.18226
-0.01400
0.00600
0.05502
-0.05835
-0.09224
-0.05662
-0.00269
0.05714
-0.04986
-0.00127
0.02280
-0.16825
0.06396
0.11268
0.03882
0.06587
0.03892
0.07727
-0.12096
0.06417
0.00584
-0.00229
0.01802
0.13972
0.05685
0.05664
-0.05266
0.01962
-0.03116
0.04046
-0.02946
-0.01938
-0.04905
-0.03993
-0.01722
-0.06997
-0.06328
-0.05574
-0.16525
-0.09531
0.07036
0.05308
-0.09351
0.04198
-0.04414
0.04569
-0.01218
-0.11667
0.17821
0.04549
-0.10728
-0.00172
0.12840
-0.04672
0.08701
-0.00549
-0.12029
0.49190
-0.03430
0.04831
0.03547
0.05752
0.02931
0.03441
-0.05815
0.04159
0.01910
0.05561
0.13046
-0.07030
-0.10851
0.14631
-0.12184
0.17406
-0.01549
0.02426
0.27207
0.12864
-0.09470
-0.15786
0.18550
-0.01671
-0.13182
-0.06559
0.03835
-0.03841
0.03582
-0.02455
-0.04126
-0.02461
-0.07390
-0.17050
0.31613
0.14336
0.39192
-0.01500
0.12648
-0.09548
0.08420
0.01117
-0.03347
0.01694
-0.00142
0.03761
-0.06098
-0.15235
0.04385
-0.05112
-0.11479
-0.07518
0.04422
0.27208
0.34817
0.07639
0.14119
-0.00233
-0.00766
0.12973
0.15478
0.10937
0.42501
0.05129
0.25022
-0.10599
-0.14012
0.02860
0.28832
0.00670
0.03963
-0.01262
0.10471
0.43748
0.23232
-0.03520
0.14921
-0.08409
-0.08652
0.01414
-0.08270
0.23678
0.12797
0.28299
0.18310
-0.05999
0.05039
-0.08949
0.12078
0.02061
0.06357
-0.03121
-0.10637
-0.13690
0.13083
0.10115
0.25928
0.05579
0.18418
-0.12496
-0.15031
0.04114
-0.00144
-0.03988
-0.03303
-0.05891
-0.03286
0.01777
0.10507
-0.13387
0.05897
-0.06545
0.10962
-0.00086
-0.01504
0.16829
0.04417
0.14265
0.34952
0.01380
0.20024
-0.11337
0.27368
0.02190
0.15399
0.00316
-0.11627
0.15941
-0.08266
0.05361
0.03874
0.14306
0.24377
-0.09246
-0.10101
0.12187
-0.01196
-0.06008
-0.15682
-0.05021
-0.15468
-0.15612
-0.08345
-0.01991
-0.19736
0.41036
0.10735
-0.00555
0.06680
-0.05660
-0.08265
-0.00225
-0.10506
-0.13853
-0.16009
0.08707
-0.03760
0.14846
0.11367
-0.08743
0.04545
-0.10126
0.03731
-0.07124
-0.10935
-0.07599
-0.11580
-0.10247
-0.11240
-0.12370
-0.12811
-0.18650
-0.03385
-0.18247
-0.02218
-0.14003
-0.14848
-0.12597
-0.15111
-0.16862
-0.09364
-0.17216
-0.09675
-0.24718
-0.00676
-0.24596
-0.01329
-0.10467
-0.18101
-0.07075
-0.18158
0.10000
