# vtk DataFile Version 3.0
Point representing Sub_cellular elem model
ASCII

DATASET UNSTRUCTURED_GRID
POINTS 650 float
-0.00167 1.74348 1.04665 
0.00125 1.74133 -1.10158 
1.74369 1.07660 -0.02480 
1.74341 -1.07713 -0.02343 
0.00146 -1.74338 -1.10015 
0.00118 -1.74124 1.04885 
1.07217 0.00158 1.72434 
-1.07587 0.00121 1.72506 
1.07791 -0.00136 -1.76433 
-1.07502 -0.00135 -1.76487 
-1.74282 1.07691 -0.02640 
-1.74230 -1.07816 -0.02554 
0.00026 2.05469 -0.02730 
1.02717 1.66301 0.60646 
0.63567 1.03036 1.63097 
-0.63559 1.02537 1.63606 
-1.02777 1.66194 0.60667 
1.02824 1.66090 -0.65971 
0.63592 1.02507 -1.68421 
-0.63304 1.02513 -1.68457 
-1.02628 1.66106 -0.66034 
2.05455 -0.00050 -0.02351 
1.66151 0.63517 1.00026 
1.66258 0.63329 -1.04985 
1.02838 -1.66239 -0.65812 
1.02759 -1.66055 0.60954 
1.65992 -0.63332 1.00227 
1.66259 -0.63558 -1.04942 
0.00137 -2.05493 -0.02499 
0.63593 -1.02772 -1.68363 
-0.63295 -1.02775 -1.68385 
-1.02568 -1.66276 -0.65881 
0.63146 -1.02079 1.63887 
-0.63970 -1.02743 1.63180 
-1.02641 -1.66254 0.60764 
0.11860 -0.04348 2.25766 
-1.66235 0.63503 0.99894 
-1.66295 -0.63452 0.99863 
0.00150 -0.00141 -2.07549 
-1.66029 0.63348 -1.05118 
-1.66010 -0.63575 -1.05061 
-2.05409 -0.00059 -0.02609 
-0.00071 1.97389 0.54301 
0.52288 1.77423 0.86572 
0.32238 1.45108 1.38730 
-0.32592 1.44945 1.38838 
-0.52513 1.77306 0.86612 
0.00091 1.97247 -0.59767 
0.52505 1.77164 -0.92034 
0.32507 1.44713 -1.44281 
-0.32231 1.44718 -1.44300 
-0.52276 1.77172 -0.92064 
1.44988 1.41978 0.29736 
1.45021 1.41875 -0.34874 
1.97359 0.57120 -0.02404 
1.77332 0.89566 0.49827 
1.77375 0.89444 -0.54763 
1.97336 -0.57204 -0.02331 
1.45018 -1.41978 -0.34715 
1.44958 -1.41896 0.29965 
1.77255 -0.89492 0.49990 
1.77370 -0.89609 -0.54678 
0.52526 -1.77347 -0.91882 
0.00143 -1.97380 -0.59576 
0.32514 -1.44957 -1.44181 
-0.32217 -1.44960 -1.44192 
-0.52236 -1.77359 -0.91905 
0.52479 -1.77114 0.86863 
0.00129 -1.97282 0.54545 
0.32468 -1.44643 1.39028 
-0.32379 -1.44845 1.38882 
-0.52279 -1.77268 0.86758 
0.90101 0.52721 1.74565 
1.41883 0.32402 1.42218 
1.41652 -0.32194 1.42425 
0.89281 -0.52179 1.75206 
0.55591 0.00219 1.97897 
-0.90057 0.52525 1.74922 
-0.90589 -0.52289 1.74673 
-0.56142 0.00367 1.97614 
-1.42114 0.32376 1.42212 
-1.42244 -0.32174 1.42150 
0.89652 0.52214 -1.79461 
1.42015 0.32227 -1.47109 
1.42016 -0.32486 -1.47092 
0.89652 -0.52486 -1.79436 
0.57291 -0.00139 -1.99430 
-0.89362 0.52218 -1.79509 
-0.89357 -0.52488 -1.79473 
-0.56993 -0.00140 -1.99454 
-1.41746 0.32233 -1.47199 
-1.41739 -0.32489 -1.47173 
-1.44947 1.41957 0.29660 
-1.44872 1.41901 -0.34980 
-1.77332 0.89572 0.49658 
-1.77211 0.89479 -0.54927 
-1.97297 0.57150 -0.02627 
-1.44806 -1.42051 -0.34854 
-1.44868 -1.42051 0.29755 
-1.77310 -0.89630 0.49697 
-1.77174 -0.89659 -0.54846 
-1.97273 -0.57272 -0.02584 
0.55698 1.95354 0.27788 
-0.55722 1.95312 0.27790 
0.55773 1.95253 -0.33207 
-0.55639 1.95250 -0.33228 
0.90050 1.39759 1.17607 
1.05247 1.76384 -0.02650 
1.39593 1.20781 0.87283 
-0.00160 1.05766 1.73260 
1.20723 0.90288 1.36567 
0.31110 0.55924 1.93774 
-0.90190 1.39499 1.17778 
-0.29495 0.54823 1.94935 
-1.20768 0.90084 1.36744 
-1.05162 1.76370 -0.02689 
-1.39623 1.20671 0.87278 
0.90213 1.39399 -1.23027 
1.39677 1.20529 -0.92465 
0.00146 1.04952 -1.78600 
1.20766 0.89920 -1.41828 
0.30706 0.55502 -1.97423 
-0.89955 1.39414 -1.23084 
-0.30408 0.55504 -1.97438 
-1.20497 0.89934 -1.41907 
-1.39452 1.20556 -0.92570 
1.95254 0.30569 0.53215 
1.95323 0.30472 -0.57994 
1.95215 -0.30556 0.53273 
1.95320 -0.30654 -0.57966 
1.76232 0.00043 1.02601 
1.76422 -0.00117 -1.07395 
1.05275 -1.76376 -0.02420 
1.39679 -1.20734 -0.92370 
0.55824 -1.95325 -0.32995 
0.90219 -1.39629 -1.22928 
1.39480 -1.20476 0.87598 
0.55806 -1.95255 0.28051 
0.90034 -1.39207 1.18054 
1.20380 -0.89778 1.37044 
1.20768 -0.90173 -1.41775 
-0.55551 -1.95361 -0.33034 
-0.55563 -1.95339 0.27986 
0.00150 -1.05220 -1.78536 
0.30707 -0.55780 -1.97395 
-0.89928 -1.39640 -1.22968 
-0.30406 -0.55781 -1.97405 
-1.20481 -0.90181 -1.41835 
-1.05057 -1.76474 -0.02532 
-1.39414 -1.20762 -0.92462 
-0.00165 -1.05474 1.73357 
0.28608 -0.54260 1.95341 
-0.90150 -1.39570 1.17708 
-0.31882 -0.55493 1.93747 
-1.20977 -0.90056 1.36597 
-1.39612 -1.20719 0.87277 
-1.76480 0.00057 1.02303 
-1.95314 0.30586 0.52944 
-1.95314 -0.30607 0.52953 
-1.76189 -0.00116 -1.07532 
-1.95167 0.30487 -0.58187 
-1.95154 -0.30674 -0.58160 
-0.00124 1.87525 0.80601 
0.25971 1.77575 0.96680 
0.15962 1.61426 1.22697 
-0.16330 1.61367 1.22724 
-0.26266 1.77507 0.96699 
0.00111 1.87340 -0.86078 
0.26235 1.77332 -1.02166 
0.16270 1.61150 -1.28212 
-0.16005 1.61152 -1.28222 
-0.25994 1.77335 -1.02181 
1.61417 1.25807 0.13588 
1.61431 1.25759 -0.18632 
1.87518 0.83507 -0.02440 
1.77539 0.99686 0.23602 
1.77559 0.99620 -0.28543 
1.87491 -0.83575 -0.02334 
1.61415 -1.25837 -0.18479 
1.61382 -1.25800 0.13769 
1.77491 -0.99677 0.23749 
1.77545 -0.99735 -0.28432 
0.26257 -1.77527 -1.02019 
0.00145 -1.87514 -0.85911 
0.16283 -1.61376 -1.28090 
-0.15988 -1.61378 -1.28096 
-0.25965 -1.77532 -1.02029 
0.26224 -1.77295 0.96936 
0.00125 -1.87355 0.80837 
0.16245 -1.61103 1.22930 
-0.16044 -1.61174 1.22888 
-0.25994 -1.77380 0.96887 
1.00178 0.26190 1.75078 
1.25764 0.16103 1.58840 
1.25597 -0.15876 1.58973 
0.99804 -0.25815 1.75361 
0.82817 0.00213 1.86393 
-1.00456 0.26064 1.75224 
-1.00585 -0.25809 1.75183 
-0.83206 0.00152 1.86388 
-1.26097 0.16052 1.58890 
-1.26165 -0.15817 1.58867 
0.99791 0.25961 -1.79626 
1.25894 0.15996 -1.63499 
1.25894 -0.16263 -1.63492 
0.99790 -0.26234 -1.79614 
0.83658 -0.00138 -1.89583 
-0.99501 0.25963 -1.79678 
-0.99498 -0.26235 -1.79659 
-0.83363 -0.00138 -1.89621 
-1.25613 0.15999 -1.63570 
-1.25610 -0.16264 -1.63558 
-1.61349 1.25819 0.13464 
-1.61311 1.25788 -0.18764 
-1.77497 0.99706 0.23434 
-1.77434 0.99657 -0.28711 
-1.87444 0.83541 -0.02634 
-1.61250 -1.25927 -0.18657 
-1.61286 -1.25927 0.13557 
-1.77454 -0.99801 0.23501 
-1.77388 -0.99809 -0.28624 
-1.87406 -0.83666 -0.02569 
-0.00019 2.03453 0.26239 
0.00063 2.03375 -0.31700 
0.28515 2.02916 0.12090 
-0.28502 2.02900 0.12088 
0.28555 2.02870 -0.17537 
-0.28461 2.02864 -0.17544 
0.78147 1.73644 0.74443 
1.25232 1.55634 0.45586 
0.80609 1.83047 0.44239 
0.98180 1.54591 0.90213 
1.04682 1.73835 0.29468 
1.22256 1.45382 0.75469 
0.48374 1.25581 1.52238 
0.77776 0.78787 1.70432 
0.78293 1.22482 1.42111 
0.32547 1.05444 1.70425 
0.93275 0.98553 1.51286 
0.47333 0.81000 1.80272 
-0.48614 1.25253 1.52515 
-0.77691 0.78446 1.70892 
-0.32715 1.05042 1.70793 
-0.78406 1.22124 1.42422 
-0.46944 0.80266 1.81047 
-0.93305 0.98236 1.51616 
-0.78286 1.73514 0.74488 
-1.25231 1.55570 0.45562 
-0.80661 1.82972 0.44249 
-0.98295 1.54413 0.90291 
-1.04669 1.73783 0.29453 
-1.22302 1.45260 0.75488 
0.78306 1.73396 -0.79852 
1.25296 1.55473 -0.50822 
0.80708 1.82887 -0.49618 
1.04737 1.73722 -0.34774 
0.98327 1.54300 -0.95579 
1.22354 1.45136 -0.80735 
0.48447 1.24976 -1.57837 
0.77469 0.77999 -1.75704 
0.78421 1.22045 -1.47552 
0.32333 1.04423 -1.75993 
0.93260 0.98019 -1.56686 
0.47174 0.80404 -1.85132 
-0.48164 1.24983 -1.57865 
-0.77179 0.78005 -1.75747 
-0.32041 1.04426 -1.76011 
-0.78145 1.22056 -1.47600 
-0.46879 0.80407 -1.85157 
-0.92980 0.98029 -1.56743 
-0.78091 1.73407 -0.79898 
-1.25121 1.55494 -0.50904 
-0.80539 1.82892 -0.49658 
-1.04590 1.73729 -0.34828 
-0.98094 1.54318 -0.95642 
-1.22139 1.45159 -0.80819 
2.03418 0.28983 -0.02374 
2.03405 -0.29079 -0.02337 
2.02859 0.14822 0.26094 
2.02895 0.14772 -0.30824 
2.02847 -0.14868 0.26117 
2.02892 -0.14918 -0.30808 
1.73512 0.77393 0.75570 
1.55492 0.48366 1.22456 
1.54447 0.93234 0.95450 
1.45258 0.78403 1.19400 
1.82912 0.47068 0.78036 
1.73681 0.32234 1.02013 
1.73585 0.77230 -0.80514 
1.55624 0.48171 -1.27415 
1.54530 0.93006 -1.00526 
1.45344 0.78143 -1.24505 
1.83006 0.46925 -0.82891 
1.73823 0.32067 -1.06880 
1.25303 -1.55599 -0.50661 
0.78324 -1.73563 -0.79697 
1.04757 -1.73803 -0.34579 
1.22360 -1.45317 -0.80608 
0.80737 -1.82996 -0.49429 
0.98337 -1.54498 -0.95453 
1.25226 -1.55467 0.45861 
0.78260 -1.73345 0.74756 
1.04719 -1.73717 0.29735 
1.22224 -1.45084 0.75793 
0.80696 -1.82874 0.44522 
0.98211 -1.54199 0.90576 
1.73398 -0.77257 0.75751 
1.55287 -0.48157 1.22671 
1.82825 -0.46982 0.78151 
1.73584 -0.32119 1.02119 
1.54283 -0.92973 0.95723 
1.45008 -0.78078 1.19723 
1.73584 -0.77433 -0.80452 
1.55625 -0.48418 -1.27387 
1.83005 -0.47135 -0.82856 
1.73823 -0.32301 -1.06859 
1.54531 -0.93227 -1.00458 
1.45346 -0.78386 -1.24456 
0.00141 -2.03458 -0.31487 
0.00133 -2.03413 0.26481 
0.28635 -2.02912 -0.17310 
0.28629 -2.02884 0.12337 
-0.28359 -2.02936 -0.17331 
-0.28363 -2.02920 0.12310 
0.48451 -1.25233 -1.57759 
0.77470 -0.78269 -1.75663 
0.78424 -1.22297 -1.47476 
0.93262 -0.98279 -1.56630 
0.32334 -1.04691 -1.75932 
0.47174 -0.80677 -1.85090 
-0.48153 -1.25236 -1.57775 
-0.77172 -0.78272 -1.75693 
-0.32035 -1.04692 -1.75942 
-0.78128 -1.22302 -1.47506 
-0.46875 -0.80678 -1.85106 
-0.92967 -0.98284 -1.56668 
-0.78041 -1.73586 -0.79739 
-1.25056 -1.55654 -0.50762 
-0.80465 -1.83036 -0.49484 
-0.98053 -1.54518 -0.95505 
-1.04508 -1.73865 -0.34667 
-1.22091 -1.45350 -0.80688 
0.48411 -1.24896 1.52714 
0.76996 -0.77946 1.71254 
0.78151 -1.21749 1.42692 
0.92860 -0.97826 1.51932 
0.32397 -1.04654 1.70975 
0.46307 -0.79721 1.81380 
-0.48640 -1.25333 1.52333 
-0.78278 -0.78424 1.70517 
-0.32961 -1.05216 1.70467 
-0.78528 -1.22233 1.42207 
-0.47891 -0.80691 1.80308 
-0.93612 -0.98265 1.51367 
-0.78104 -1.73539 0.74599 
-1.25130 -1.55649 0.45657 
-0.80499 -1.83015 0.44403 
-1.04543 -1.73860 0.29591 
-0.98180 -1.54470 0.90322 
-1.22223 -1.45325 0.75531 
0.35464 -0.09560 2.12278 
-0.06793 -0.21289 2.22253 
0.31741 0.14857 2.13932 
-0.02717 0.43337 2.08274 
0.22128 -0.30314 2.13463 
-0.22208 -0.38635 2.07093 
-1.55640 0.48348 1.22376 
-1.73551 0.77387 0.75411 
-1.45324 0.78313 1.19409 
-1.54485 0.93167 0.95392 
-1.73844 0.32256 1.01793 
-1.82996 0.47086 0.77808 
-1.55747 -0.48222 1.22318 
[...]
CELL_DATA 1942
SCALARS Strain double 
LOOKUP_TABLE default 
-0.08912
-0.08632
-0.08941
-0.08722
-0.08798
-0.08819
-0.08722
-0.08762
-0.08774
-0.08708
-0.08759
-0.08724
-0.08696
-0.08840
-0.08828
-0.08742
-0.08716
-0.08795
-0.08756
-0.08799
-0.08722
-0.08801
-0.08766
-0.08762
-0.08727
-0.08787
-0.08875
-0.08758
-0.08894
-0.08690
-0.10040
-0.07097
-0.07505
-0.09798
-0.06672
-0.10217
-0.10386
-0.06852
-0.07169
-0.06970
-0.08759
-0.08759
-0.08756
-0.08760
-0.08753
-0.08754
-0.08755
-0.08760
-0.08764
-0.08762
-0.08759
-0.08730
-0.08836
-0.08827
-0.08689
-0.08724
-0.08764
-0.08865
-0.08850
-0.08666
-0.03588
-0.03567
0.06952
0.07072
0.07062
0.06954
-0.03319
-0.03347
0.06986
0.06653
0.06691
0.07021
-0.02808
-0.03561
0.06832
0.06126
0.07177
0.07281
-0.02503
-0.04166
0.05476
0.07726
0.08920
0.07431
-0.03526
-0.03475
0.07077
0.06887
0.06835
0.07025
-0.03364
-0.03364
0.07001
0.06820
0.06855
0.06988
-0.03418
-0.03418
0.06922
0.06972
0.06971
0.06932
-0.03416
-0.03413
0.06970
0.06924
0.06932
0.06966
-0.03345
-0.03348
0.06958
0.06849
0.06872
0.06969
-0.03371
-0.03382
0.06915
0.06910
0.06904
0.06935
-0.03500
-0.03418
0.07121
0.06734
0.06813
0.07031
-0.03446
-0.03435
0.06974
0.06959
0.06950
0.06970
-0.03353
-0.03355
0.06883
0.06950
0.06951
0.06897
-0.03510
-0.03556
0.06921
0.07008
0.07051
0.07001
-0.03331
-0.03282
0.06966
0.06836
0.06861
0.06959
-0.03437
-0.03428
0.06964
0.06961
0.06959
0.06968
-0.03522
-0.03537
0.06972
0.07000
0.06995
0.06975
-0.03419
-0.03418
0.06937
0.06970
0.06969
0.06942
-0.03412
-0.03411
0.06963
0.06929
0.06936
0.06960
-0.03372
-0.03371
0.06980
0.06875
0.06844
0.06982
-0.02490
-0.04438
0.08160
0.07272
0.05112
0.09582
-0.02472
-0.03204
0.06075
0.06638
0.06976
0.06979
-0.03400
-0.03407
0.07012
0.06721
0.06679
0.07043
-0.08098
-0.15532
-0.00170
-0.01946
0.01305
-0.07026
-0.03353
-0.03452
0.06939
0.06980
0.06961
0.06976
-0.03350
-0.03492
0.06705
0.07166
0.07090
0.06797
-0.03409
-0.03410
0.06941
0.06941
0.06942
0.06941
-0.03448
-0.03460
0.06951
0.06995
0.06998
0.06938
-0.03447
-0.03463
0.06948
0.06995
0.06997
0.06938
-0.03290
-0.03284
0.06869
0.06823
0.06854
0.06878
-0.06743
-0.04682
0.07909
0.08110
0.03549
0.03370
-0.06400
-0.04347
0.07894
0.07704
0.03151
0.03341
-0.06785
-0.04687
0.07711
0.08265
0.03697
0.03151
-0.06460
-0.04262
0.08081
0.07752
0.03049
0.03304
-0.06642
-0.04602
0.08112
0.07793
0.03242
0.03555
-0.06657
-0.04622
0.08047
0.07998
0.03446
0.03500
-0.06519
-0.04449
0.08023
0.07905
0.03309
0.03434
-0.06566
-0.04500
0.07933
0.08022
0.03450
0.03387
-0.06574
-0.04503
0.08023
0.07942
0.03391
0.03452
-0.06500
-0.04429
0.07986
0.07917
0.03323
0.03414
-0.06555
-0.04467
0.07795
0.08094
0.03488
0.03198
-0.06517
-0.04447
0.07837
0.08026
0.03458
0.03312
-0.06501
-0.04443
0.07918
0.07944
0.03356
0.03367
-0.06671
-0.04610
0.08103
0.07904
0.03335
0.03506
-0.06622
-0.04542
0.08025
0.07970
0.03428
0.03456
-0.06544
-0.04473
0.07930
0.07994
0.03411
0.03369
-0.06508
-0.04436
0.07925
0.07975
0.03396
0.03362
-0.06616
-0.04568
0.07943
0.08030
0.03480
0.03423
-0.06545
-0.04452
0.07924
0.07997
0.03402
0.03343
-0.06602
-0.04529
0.08004
0.07986
0.03429
0.03447
-0.06516
-0.04443
0.07991
0.07935
0.03349
0.03414
-0.06629
-0.04585
0.08005
0.08014
0.03461
0.03452
-0.06569
-0.04502
0.07955
0.08014
0.03447
0.03401
-0.06563
-0.04496
0.08011
0.07949
0.03396
0.03439
-0.06525
-0.04456
0.08002
0.07929
0.03339
0.03426
-0.06635
-0.04613
0.08050
0.07851
0.03303
0.03539
-0.06693
-0.04629
0.08023
0.07947
0.03396
0.03460
-0.06493
-0.04266
0.07804
0.08091
0.03235
0.03111
-0.06726
-0.04576
0.08311
0.07641
0.02988
0.03703
-0.06476
-0.04428
0.07938
0.07704
0.03184
0.03390
-0.05761
-0.03297
0.07278
0.08231
0.03215
0.02126
-0.05989
-0.04317
0.07423
0.07860
0.03699
0.03239
-0.06222
-0.04296
0.07749
0.08158
0.03672
0.03321
-0.05754
-0.04324
0.08515
0.07305
0.03753
0.04298
-0.01868
-0.11689
0.14844
0.13398
0.02642
0.02683
-0.05601
-0.03716
0.06970
0.08020
0.03681
0.03368
-0.06015
-0.03099
0.08278
0.07084
0.01724
0.03306
-0.02719
0.13483
0.14686
0.02711
0.02675
-0.06025
-0.04262
0.07855
0.07733
0.03533
0.03607
-0.05771
-0.04166
0.07361
0.07729
0.03694
0.03297
-0.06564
-0.04500
0.07988
0.07970
0.03399
0.03422
-0.06568
-0.04509
0.07985
0.07983
0.03418
0.03413
-0.06564
-0.04504
0.07982
0.07985
0.03416
0.03415
-0.06565
-0.04500
0.07987
0.07975
0.03407
0.03421
-0.06556
-0.04491
0.07972
0.07974
0.03405
0.03405
-0.06557
-0.04493
0.07968
0.07980
0.03416
0.03395
-0.06558
-0.04493
0.07972
0.07977
0.03413
0.03399
-0.06562
-0.04494
0.07972
0.07974
0.03407
0.03407
-0.06576
-0.04520
0.07976
0.08000
0.03433
0.03404
-0.06573
-0.04517
0.07973
0.07999
0.03431
0.03401
-0.06576
-0.04532
0.07862
0.08052
0.03490
0.03315
-0.06517
-0.04439
0.07870
0.08022
0.03428
0.03327
-0.06658
-0.04582
0.08047
0.07943
0.03383
0.03484
-0.06629
-0.04555
0.08042
0.07955
0.03422
0.03488
-0.06471
-0.04387
0.07922
0.07912
0.03301
0.03343
-0.06521
-0.04454
0.07836
0.08032
0.03447
0.03313
-0.06571
-0.04503
0.07795
0.08101
0.03490
0.03208
-0.06701
-0.04632
0.08129
0.07875
0.03316
0.03562
-0.06645
-0.04563
0.08048
0.07956
0.03419
0.03492
-0.06447
-0.04369
0.07870
0.07917
0.03312
0.03312
0.07199
0.07205
0.02177
0.01810
0.01523
0.01840
0.07328
0.07331
0.02006
0.01878
0.01570
0.01691
0.07295
0.07273
0.02081
0.01909
0.01557
0.01766
0.07203
0.07204
0.02141
0.01929
0.01588
0.01828
0.06888
0.06923
0.02124
0.02022
0.01765
0.01792
0.06986
0.07031
0.02098
0.02106
0.01812
0.01771
0.07344
0.07387
0.01798
0.01972
0.01686
0.01458
0.09001
0.08420
0.01779
0.01405
0.00649
0.01534
0.06985
0.06960
0.01782
0.02389
0.02017
0.01452
0.08818
-0.03617
0.04789
0.02632
0.07093
0.02616
0.07485
0.07254
0.01703
0.02246
0.01685
0.01640
0.12329
0.06392
0.09022
0.02643
0.07536
0.02652
0.07164
0.07173
0.02137
0.02156
0.01820
0.01804
0.07072
0.07080
0.02132
0.02039
0.01701
0.01826
0.07253
0.07233
0.01985
0.01997
0.01649
0.01732
0.07133
0.07156
0.02058
0.02080
0.01761
0.01737
0.07232
0.07228
0.01972
0.02070
0.01758
0.01675
0.07224
0.07223
0.02028
0.02029
0.01714
0.01715
0.07219
0.07216
0.02022
0.02051
0.01735
0.01691
0.07188
0.07190
0.02054
0.02035
0.01715
0.01736
0.07161
0.07143
0.02082
0.02050
0.01738
0.01761
0.07187
0.07189
0.02050
0.02037
0.01718
0.01735
0.07213
0.07208
0.02018
0.02063
0.01743
0.01688
0.07232
0.07241
0.01977
0.02067
0.01757
0.01675
0.07138
0.07103
0.01984
0.02110
0.01766
0.01682
0.07173
0.07188
0.02014
0.02080
0.01756
0.01709
0.07162
0.07185
0.02027
0.02037
0.01740
0.01685
0.07200
0.07209
0.02009
0.02064
0.01751
0.01701
0.07228
0.07153
0.01911
0.02143
0.01730
0.01646
0.07216
0.07213
0.02038
0.02043
0.01718
0.01711
0.07128
0.07137
0.02019
0.02116
0.01799
0.01694
0.07203
0.07207
0.02004
0.02082
0.01766
0.01698
0.07207
0.07216
0.01962
0.02101
0.01791
0.01630
0.07164
0.07178
0.02043
0.02081
0.01765
0.01725
0.07207
0.07148
0.02121
0.01955
0.01603
0.01901
0.07280
0.07261
0.01936
0.02024
0.01698
0.01621
0.07413
0.07737
0.02264
0.01570
0.01549
0.01615
0.07243
0.07264
0.01865
0.02441
0.02024
0.01568
0.07220
0.07221
0.02045
0.02033
0.01708
0.01727
0.07241
0.07235
0.02088
0.01944
0.01598
0.01773
0.07225
0.07232
0.02092
0.01852
0.01567
0.01768
0.07218
0.07216
0.02037
0.02032
0.01717
0.01721
0.07194
0.07194
0.02052
0.02036
0.01718
0.01733
0.07168
0.07150
0.02068
0.02057
0.01742
0.01748
0.07190
0.07192
0.02047
0.02039
0.01721
0.01732
0.07207
0.07203
0.02022
0.02063
0.01744
0.01692
0.07057
0.07015
0.02075
0.02102
0.01778
0.01759
0.07237
0.07242
0.01973
0.02060
0.01746
0.01676
0.08432
0.09309
0.01503
0.01580
0.01445
0.00838
0.12901
0.01999
0.08798
0.02627
0.07885
0.02655
0.06853
0.06888
0.01924
0.02221
0.01930
0.01667
0.08695
-0.21723
0.04162
0.02645
0.07945
0.02622
0.06777
0.06865
0.01883
0.02477
0.02176
0.01534
0.07369
0.07418
0.01823
0.01939
0.01617
0.01509
0.07273
0.07323
0.02133
0.01913
0.01573
0.01706
0.07181
0.07137
0.02141
0.01903
0.01569
0.01855
0.07050
0.07054
0.02197
0.01932
0.01637
0.01876
0.07248
0.07248
0.02025
0.02024
0.01694
0.01691
0.07167
0.07138
0.02125
0.01983
0.01680
0.01811
0.07172
0.07150
0.02128
0.01966
0.01671
0.01812
0.06990
0.07219
-0.00438
-0.00638
0.06956
-0.00785
-0.00739
0.07211
-0.00385
-0.00616
0.06888
-0.00838
-0.00636
-0.00755
-0.00467
0.07144
0.07115
-0.00540
-0.00509
0.07047
-0.00662
-0.00566
0.07155
-0.00534
-0.00603
0.07058
-0.00595
-0.00527
-0.00656
-0.00584
0.06971
0.07199
-0.00512
-0.00725
0.07151
-0.00548
-0.00670
0.07044
0.07079
-0.00644
-0.00637
-0.00612
-0.00494
-0.00556
-0.00522
0.07049
0.07128
-0.00568
-0.00622
0.07066
0.07099
-0.00605
-0.00624
0.07145
-0.00518
-0.00576
-0.00563
-0.00639
-0.00561
-0.00536
0.07120
0.07071
-0.00633
-0.00579
0.07127
-0.00534
-0.00541
0.07143
-0.00538
-0.00588
0.07067
-0.00593
-0.00544
-0.00636
-0.00571
0.07146
0.06939
-0.00703
-0.00502
0.07034
-0.00615
-0.00523
0.07200
-0.00642
-0.00789
0.06949
-0.00676
-0.00424
-0.00750
-0.00687
0.06037
0.10325
-0.00307
-0.02664
0.06174
-0.00226
-0.00692
0.06690
-0.00222
-0.00330
0.09498
-0.00629
-0.01878
-0.03513
-0.02916
0.09796
0.06266
-0.02692
-0.00626
0.10192
0.06052
-0.02841
-0.00127
-0.03312
-0.03820
0.05808
-0.00276
-0.00285
-0.00420
-0.00509
0.07108
0.07098
-0.00585
-0.00571
0.07103
-0.00576
-0.00576
0.07107
-0.00577
-0.00578
0.07101
-0.00579
-0.00572
-0.00582
-0.00583
0.07098
0.07100
-0.00578
-0.00589
0.07101
0.07097
-0.00579
-0.00586
-0.00578
-0.00579
0.07114
-0.00566
-0.00584
-0.00567
-0.00587
0.06997
0.07174
-0.00518
-0.00675
0.07157
-0.00563
-0.00662
0.07057
-0.00600
-0.00496
0.07064
-0.00562
-0.00497
-0.00670
-0.00646
0.06954
0.07166
-0.00553
-0.00683
0.07216
-0.00511
-0.00739
0.07018
-0.00627
-0.00449
0.07061
-0.00563
-0.00485
-0.00683
-0.00675
0.05757
0.05612
0.07693
0.07854
0.05651
0.05735
0.07814
0.07739
-0.01638
-0.01801
0.05078
-0.01620
-0.01774
0.04948
-0.01749
0.04985
-0.01737
0.05076
0.05345
0.05669
0.07698
0.07380
0.05690
0.05354
0.07492
0.07834
-0.01368
-0.01471
0.04726
-0.01409
-0.01537
0.05035
-0.01535
0.05001
-0.01598
0.04642
0.05372
0.04290
0.07054
0.08396
0.04857
0.06476
0.07261
0.06044
-0.01444
-0.01382
0.05018
0.00326
-0.01996
0.01739
-0.01068
0.04487
-0.02329
0.02761
0.04746
0.04948
0.07899
0.07421
0.07673
0.05355
0.06308
0.07776
0.00784
-0.01333
0.02415
-0.01671
-0.01204
0.04985
-0.04343
0.01735
-0.01306
0.04977
0.05483
0.05771
0.07862
0.07585
0.05721
0.05538
0.07603
0.07798
-0.01523
-0.01670
0.04814
-0.01553
-0.01795
0.04994
-0.01633
0.05076
-0.01664
0.04924
0.05511
0.05660
0.07771
0.07636
0.05681
0.05529
0.07584
0.07766
-0.01414
-0.01556
0.04809
-0.01551
0.05032
-0.01421
-0.01560
0.04985
-0.01562
0.04890
0.05658
0.05607
0.07687
0.07755
0.05609
0.05643
0.07736
0.07709
-0.01461
-0.01599
0.04989
-0.01472
-0.01612
0.04947
-0.01601
0.04930
-0.01610
0.04977
0.05608
0.05656
0.07754
0.07691
0.05639
0.05607
0.07708
0.07730
-0.01470
-0.01613
0.04946
-0.01457
-0.01601
0.04986
-0.01606
0.04975
-0.01593
0.04930
0.05533
0.05638
0.07729
0.07651
0.05641
0.05546
0.07617
0.07753
-0.01379
-0.01518
0.04842
-0.01525
0.04960
-0.01414
-0.01551
0.04979
-0.01559
0.04899
0.05580
0.05598
0.07672
0.07684
0.05611
0.05587
0.07677
0.07723
-0.01429
-0.01552
0.04916
-0.01430
-0.01562
0.04947
-0.01583
0.04920
-0.01576
0.04930
0.05493
0.05723
0.07868
0.07620
0.05842
0.05461
0.07386
0.07757
-0.01625
-0.01782
0.04820
-0.01708
0.05205
-0.01505
-0.01678
0.05017
-0.01571
0.04841
0.05641
0.05660
0.07759
0.07720
0.05643
0.05629
0.07730
0.07734
-0.01498
-0.01653
0.04982
-0.01625
0.04979
-0.01483
-0.01634
0.04987
-0.01613
0.04953
0.05622
0.05576
0.07660
0.07721
0.05561
0.05630
0.07730
0.07672
-0.01398
-0.01535
0.04953
-0.01413
-0.01552
0.04923
-0.01543
0.04880
-0.01555
0.04963
0.05703
0.05656
0.07690
0.07775
0.05556
0.05767
0.07819
0.07667
-0.01536
-0.01656
0.05045
-0.01611
-0.01709
0.05087
-0.01668
0.04876
-0.01862
0.04969
0.05574
0.05579
0.07687
0.07694
0.05742
0.05495
0.07549
0.07830
-0.01469
-0.01596
0.04931
-0.01642
0.04994
-0.01295
-0.01506
0.04902
-0.01373
0.04831
0.05644
0.05655
0.07744
0.07733
0.05637
0.05635
0.07730
0.07734
-0.01483
-0.01631
0.04979
-0.01613
0.04966
-0.01484
-0.01633
0.04991
-0.01615
0.04966
0.05679
0.05665
0.07751
0.07765
0.05636
0.05675
0.07770
0.07725
-0.01573
-0.01697
0.05021
-0.01721
0.04964
-0.01592
-0.01708
0.05001
-0.01752
0.05006
0.05656
0.05619
0.07705
0.07749
0.05620
0.05642
0.07736
0.07717
-0.01466
-0.01606
0.04990
-0.01604
0.04946
-0.01470
-0.01611
0.04955
-0.01609
0.04974
0.05613
0.05647
0.07745
0.07698
0.05635
0.05612
0.07712
0.07726
-0.01466
-0.01606
0.04951
-0.01455
-0.01596
0.04977
-0.01604
0.04970
-0.01593
0.04935
0.05540
0.05651
0.07749
0.07660
0.05664
0.05541
0.07597
0.07765
-0.01415
-0.01557
0.04842
-0.01432
-0.01570
0.04986
-0.01553
0.04996
-0.01572
0.04901
0.04716
0.04971
0.07557
0.07820
0.06046
0.07454
0.08105
0.07261
-0.01845
-0.01182
0.04859
-0.01774
0.05390
0.00888
-0.01361
0.02683
-0.04432
0.01338
0.03901
0.05274
0.08558
0.06847
0.06264
0.04754
0.05898
0.06950
0.00768
-0.01873
0.01307
-0.01182
-0.01182
0.04872
-0.02016
0.02627
-0.00824
0.04465
0.05375
0.05716
0.07735
0.07385
0.05701
0.05380
0.07511
0.07841
-0.01437
-0.01553
0.04762
-0.01581
0.05017
-0.01484
-0.01626
0.05093
-0.01647
0.04672
-0.17815
-0.18001
0.07077
-0.09453
-0.07345
-0.07970
0.03803
-0.07162
-0.04655
-0.23754
-0.02181
0.00126
-0.01688
0.09781
0.05678
0.05721
0.07698
0.07667
0.05606
0.05675
0.07770
0.07708
-0.01434
-0.01498
0.04999
-0.01644
0.04920
-0.01570
-0.01669
0.04985
-0.01726
0.05050
0.05890
0.05469
0.07337
0.07772
0.05472
0.05787
0.07903
0.07594
-0.01559
-0.01582
0.05268
-0.01762
0.04769
-0.01521
-0.01550
0.04804
-0.01718
0.05115
0.05620
0.05620
0.07714
0.07716
0.05621
0.05621
0.07714
0.07716
-0.01457
-0.01596
0.04951
-0.01598
0.04953
-0.01459
-0.01597
0.04953
-0.01600
0.04955
0.05661
0.05619
0.07721
0.07756
0.05633
0.05692
0.07780
0.07707
-0.01505
-0.01633
0.04992
-0.01658
0.04976
-0.01503
-0.01630
0.04937
-0.01655
0.05027
0.05660
0.05618
0.07718
0.07755
0.05631
0.05692
0.07782
0.07708
-0.01504
-0.01630
0.04992
-0.01661
0.04970
-0.01506
-0.01629
0.04939
-0.01664
0.05027
0.05505
0.05558
0.07655
0.07637
0.05536
0.05528
0.07600
0.07652
-0.01324
-0.01481
0.04810
-0.01458
0.04873
-0.01355
-0.01500
0.04906
-0.01494
0.04890
-0.01933
-0.01575
-0.01900
-0.01786
0.08518
0.08691
-0.01542
-0.01843
0.08121
-0.02063
-0.01664
0.09048
-0.01552
-0.01858
0.08405
-0.01838
-0.01679
-0.01829
-0.01643
0.08627
0.08566
-0.01680
-0.01717
0.08498
-0.01734
-0.01738
0.08590
-0.01726
-0.01671
0.08507
-0.01681
-0.01666
-0.01746
-0.01893
0.08372
0.08706
-0.01688
-0.01791
0.08596
-0.01655
-0.01803
-0.01673
-0.01767
0.08481
0.08536
-0.01711
-0.01714
-0.01701
-0.01760
0.08515
0.08569
-0.01657
-0.01763
-0.01675
-0.01762
0.08498
0.08561
-0.01802
-0.01683
0.08569
-0.01670
-0.01798
-0.01679
-0.01726
0.08574
0.08524
-0.01804
-0.01680
0.08590
-0.01733
-0.01728
0.08581
-0.01717
-0.01690
0.08516
-0.01771
-0.01844
-0.01895
-0.01550
0.08619
0.08499
-0.01886
-0.01663
0.08554
-0.01740
-0.02001
0.09165
-0.01768
-0.01601
0.08056
-0.01196
-0.01718
0.02047
-0.08180
0.08164
0.03835
-0.01566
-0.01828
0.08523
-0.01502
-0.01803
0.08803
0.02075
-0.06908
0.02390
0.02694
-0.08281
-0.01449
-0.01587
0.01481
0.08544
0.01982
-0.08924
-0.01174
-0.01534
0.04069
0.08000
-0.01740
-0.01529
0.08576
-0.01721
-0.01736
-0.01728
-0.01715
0.08568
0.08546
-0.01726
-0.01726
0.08564
-0.01728
-0.01723
0.08569
-0.01728
-0.01716
0.08550
-0.01724
-0.01720
-0.01711
-0.01742
0.08545
0.08560
-0.01724
-0.01721
-0.01712
-0.01739
0.08548
0.08555
-0.01739
-0.01737
0.08589
-0.01730
-0.01654
-0.01758
-0.01806
0.08435
0.08612
-0.01689
-0.01791
0.08603
-0.01840
-0.01623
0.08513
-0.01786
-0.01630
0.08509
-0.01668
-0.01704
-0.01696
-0.01801
0.08388
0.08608
-0.01770
-0.01898
0.08719
-0.01850
-0.01583
0.08426
-0.01803
-0.01619
0.08516
0.04862
0.04930
0.04643
0.04954
0.04825
0.04698
0.04462
0.05027
0.04729
0.11056
-0.03975
-0.03078
0.04859
0.04765
0.04877
0.04787
0.04855
0.04861
0.04851
0.04825
0.04823
0.04790
0.04856
0.04861
0.04760
0.04814
0.04848
0.04816
0.04832
0.04857
0.04747
0.04831
0.04907
0.04838
0.04810
0.04865
0.04767
0.05105
0.04750
0.04875
0.04879
0.04679
0.04847
0.04830
0.04826
0.04795
0.04848
0.04863
0.11331
-0.02951
-0.04236
0.04482
0.04611
0.05101
0.04969
0.04785
0.04672
0.04902
0.04790
0.04797
-0.13746
-0.24099
-0.01382
-0.17288
-0.02231
0.02795
-0.12353
-0.22749
-0.23615
0.04734
0.12488
-0.16059
-0.12530
-0.20673
-0.05530
-0.15977
-0.12824
-0.11293
-0.02130
0.01872
-0.11388
-0.07896
-0.01403
-0.08994
-0.14386
-0.11563
0.10000
