# vtk DataFile Version 3.0
Point representing Sub_cellular elem model
ASCII

DATASET UNSTRUCTURED_GRID
POINTS 650 float
-0.00140 1.73924 1.04802 
0.00106 1.74103 -1.10417 
1.74143 1.07598 -0.02633 
1.74105 -1.07568 -0.02438 
0.00138 -1.74295 -1.10162 
-0.00121 -1.73553 1.05149 
1.07397 0.00430 1.73026 
-1.07641 0.00078 1.72683 
1.07827 -0.00137 -1.76693 
-1.07495 -0.00148 -1.76835 
-1.74137 1.07559 -0.02865 
-1.74138 -1.07639 -0.02774 
0.00019 2.05159 -0.02818 
1.02504 1.65902 0.60730 
0.63091 1.02663 1.63965 
-0.63598 1.02443 1.63846 
-1.02664 1.65881 0.60556 
1.02732 1.66028 -0.66154 
0.63600 1.02527 -1.68719 
-0.63300 1.02520 -1.68796 
-1.02592 1.66011 -0.66291 
2.05247 0.00008 -0.02552 
1.65796 0.63480 1.00086 
1.66242 0.63373 -1.05251 
1.02735 -1.66123 -0.65872 
1.02443 -1.65675 0.61023 
1.65791 -0.63146 1.00185 
1.66246 -0.63539 -1.05145 
0.00034 -2.05122 -0.02471 
0.63623 -1.02795 -1.68567 
-0.63275 -1.02803 -1.68666 
-1.02566 -1.66172 -0.66081 
0.63539 -1.02366 1.64061 
-0.63559 -1.02243 1.64116 
-1.02597 -1.65778 0.60786 
0.17191 -0.10785 2.24120 
-1.66027 0.63347 0.99931 
-1.66058 -0.63234 0.99912 
0.00187 -0.00162 -2.07818 
-1.66027 0.63350 -1.05473 
-1.66022 -0.63565 -1.05410 
-2.05262 -0.00030 -0.02860 
-0.00048 1.96952 0.54302 
0.52215 1.76939 0.86723 
0.32089 1.44661 1.39178 
-0.32597 1.44637 1.39082 
-0.52439 1.76938 0.86607 
0.00068 1.97107 -0.59947 
0.52460 1.77117 -0.92254 
0.32497 1.44728 -1.44573 
-0.32235 1.44724 -1.44612 
-0.52275 1.77110 -0.92321 
1.44719 1.41761 0.29692 
1.44864 1.41808 -0.35031 
1.97143 0.57128 -0.02596 
1.77000 0.89461 0.49740 
1.77267 0.89468 -0.54981 
1.97119 -0.57108 -0.02492 
1.44843 -1.41840 -0.34779 
1.44659 -1.41639 0.29946 
1.76949 -0.89306 0.49897 
1.77258 -0.89547 -0.54823 
0.52483 -1.77268 -0.91972 
0.00094 -1.97211 -0.59640 
0.32527 -1.44965 -1.44359 
-0.32203 -1.44973 -1.44415 
-0.52243 -1.77291 -0.92076 
0.52180 -1.76612 0.87050 
-0.00039 -1.96729 0.54662 
0.32159 -1.44281 1.39458 
-0.32538 -1.44287 1.39404 
-0.52376 -1.76676 0.86921 
0.89812 0.52681 1.75552 
1.41713 0.32559 1.42574 
1.41791 -0.31930 1.42605 
0.90251 -0.52088 1.75458 
0.56207 -0.00664 1.98280 
-0.89838 0.52392 1.75415 
-0.90108 -0.52451 1.75273 
-0.56610 -0.00483 1.98144 
-1.41863 0.32353 1.42445 
-1.41978 -0.32148 1.42370 
0.89679 0.52223 -1.79744 
1.42040 0.32251 -1.47385 
1.42045 -0.32482 -1.47334 
0.89690 -0.52503 -1.79666 
0.57327 -0.00155 -1.99686 
-0.89353 0.52214 -1.79855 
-0.89341 -0.52512 -1.79793 
-0.56964 -0.00160 -1.99759 
-1.41756 0.32235 -1.47573 
-1.41750 -0.32499 -1.47538 
-1.44794 1.41722 0.29495 
-1.44785 1.41780 -0.35225 
-1.77131 0.89397 0.49521 
-1.77145 0.89437 -0.55221 
-1.97143 0.57089 -0.02867 
-1.44772 -1.41907 -0.35072 
-1.44768 -1.41741 0.29634 
-1.77132 -0.89384 0.49567 
-1.77148 -0.89591 -0.55138 
-1.97151 -0.57157 -0.02827 
0.55612 1.94966 0.27783 
-0.55651 1.94967 0.27686 
0.55695 1.95054 -0.33323 
-0.55607 1.95049 -0.33404 
0.89761 1.39335 1.17979 
1.05083 1.76150 -0.02717 
1.39238 1.20507 0.87415 
-0.00339 1.05195 1.74208 
1.20337 0.90133 1.37048 
0.30644 0.54855 1.95456 
-0.90150 1.39250 1.17806 
-0.30786 0.54959 1.95238 
-1.20648 0.89891 1.36925 
-1.05069 1.76135 -0.02873 
-1.39485 1.20411 0.87238 
0.90187 1.39416 -1.23294 
1.39621 1.20551 -0.92708 
0.00156 1.04964 -1.78914 
1.20770 0.89954 -1.42114 
0.30732 0.55499 -1.97710 
-0.89954 1.39403 -1.23406 
-0.30385 0.55496 -1.97747 
-1.20503 0.89938 -1.42265 
-1.39433 1.20529 -0.92888 
1.94936 0.30597 0.53062 
1.95239 0.30518 -0.58229 
1.94916 -0.30442 0.53115 
1.95236 -0.30606 -0.58175 
1.75989 0.00179 1.02559 
1.76420 -0.00085 -1.07646 
1.05049 -1.76098 -0.02402 
1.39627 -1.20696 -0.92504 
0.55696 -1.95081 -0.32990 
0.90208 -1.39614 -1.23072 
1.39200 -1.20229 0.87614 
0.55583 -1.94819 0.28136 
0.89797 -1.38980 1.18202 
1.20499 -0.89664 1.37161 
1.20784 -0.90178 -1.41971 
-0.55574 -1.95125 -0.33115 
-0.55608 -1.94884 0.28000 
0.00182 -1.05252 -1.78770 
0.30746 -0.55809 -1.97632 
-0.89927 -1.39637 -1.23233 
-0.30371 -0.55811 -1.97675 
-1.20486 -0.90196 -1.42163 
-1.05032 -1.76184 -0.02640 
-1.39419 -1.20732 -0.92756 
-0.00121 -1.05194 1.74249 
0.30918 -0.56132 1.94996 
-0.90061 -1.39033 1.18046 
-0.30341 -0.55491 1.95212 
-1.20702 -0.89806 1.36940 
-1.39452 -1.20336 0.87319 
-1.76213 0.00088 1.02369 
-1.95085 0.30540 0.52815 
-1.95091 -0.30492 0.52825 
-1.76197 -0.00108 -1.07900 
-1.95114 0.30488 -0.58509 
-1.95116 -0.30639 -0.58483 
-0.00091 1.87077 0.80661 
0.25961 1.77107 0.96831 
0.15929 1.61001 1.22956 
-0.16315 1.60999 1.22909 
-0.26212 1.77109 0.96767 
0.00088 1.87265 -0.86302 
0.26206 1.77293 -1.02406 
0.16253 1.61148 -1.28490 
-0.16016 1.61146 -1.28510 
-0.26006 1.77290 -1.02440 
1.61159 1.25677 0.13482 
1.61238 1.25695 -0.18783 
1.87297 0.83481 -0.02614 
1.77258 0.99594 0.23475 
1.77392 0.99608 -0.28729 
1.87265 -0.83456 -0.02462 
1.61207 -1.25696 -0.18556 
1.61109 -1.25604 0.13709 
1.77209 -0.99505 0.23655 
1.77370 -0.99636 -0.28549 
0.26235 -1.77467 -1.02135 
0.00118 -1.87418 -0.86020 
0.16285 -1.61364 -1.28253 
-0.15983 -1.61369 -1.28283 
-0.25973 -1.77478 -1.02186 
0.25953 -1.76746 0.97171 
-0.00079 -1.86767 0.81015 
0.15949 -1.60597 1.23286 
-0.16273 -1.60616 1.23245 
-0.26170 -1.76781 0.97104 
1.00065 0.26367 1.75925 
1.25739 0.16356 1.59368 
1.25818 -0.15567 1.59359 
1.00318 -0.25550 1.75826 
0.83122 0.00371 1.87024 
-1.00105 0.26055 1.75712 
-1.00452 -0.25997 1.75495 
-0.83457 -0.00053 1.86679 
-1.25849 0.16127 1.59169 
-1.25997 -0.15877 1.59073 
0.99823 0.25964 -1.79898 
1.25927 0.16007 -1.63768 
1.25929 -0.16262 -1.63743 
0.99828 -0.26244 -1.79859 
0.83694 -0.00147 -1.89841 
-0.99491 0.25954 -1.80025 
-0.99486 -0.26253 -1.79995 
-0.83344 -0.00155 -1.89949 
-1.25616 0.15993 -1.63935 
-1.25612 -0.16275 -1.63916 
-1.61192 1.25637 0.13269 
-1.61194 1.25660 -0.18998 
-1.77318 0.99547 0.23243 
-1.77326 0.99573 -0.28968 
-1.87293 0.83441 -0.02866 
-1.61189 -1.25766 -0.18877 
-1.61183 -1.25691 0.13381 
-1.77319 -0.99583 0.23316 
-1.77330 -0.99691 -0.28880 
-1.87299 -0.83516 -0.02802 
-0.00012 2.03066 0.26194 
0.00045 2.03153 -0.31833 
0.28473 2.02562 0.12043 
-0.28468 2.02563 0.11995 
0.28507 2.02607 -0.17632 
-0.28444 2.02606 -0.17676 
0.77998 1.73182 0.74574 
1.24977 1.55322 0.45609 
0.80467 1.82641 0.44278 
0.97938 1.54158 0.90417 
1.04491 1.73507 0.29468 
1.21963 1.45025 0.75590 
0.48008 1.25081 1.52961 
0.77312 0.78539 1.71437 
0.77922 1.22094 1.42702 
0.31976 1.04741 1.71556 
0.92848 0.98301 1.51985 
0.46745 0.80516 1.81507 
-0.48591 1.24983 1.52836 
-0.77553 0.78208 1.71353 
-0.32600 1.04610 1.71480 
-0.78410 1.21942 1.42549 
-0.47109 0.80303 1.81400 
-0.93231 0.98032 1.51870 
-0.78193 1.73174 0.74421 
-1.25096 1.55289 0.45423 
-0.80562 1.82637 0.44136 
-0.98208 1.54117 0.90238 
-1.04557 1.73492 0.29302 
-1.22180 1.44971 0.75405 
0.78240 1.73340 -0.80053 
1.25173 1.55406 -0.50989 
0.80614 1.82758 -0.49765 
1.04607 1.73582 -0.34901 
0.98271 1.54290 -0.95810 
1.22277 1.45125 -0.80951 
0.48446 1.24998 -1.58135 
0.77488 0.78015 -1.75996 
0.78416 1.22070 -1.47842 
0.32342 1.04438 -1.76298 
0.93268 0.98046 -1.56978 
0.47192 0.80413 -1.85428 
-0.48164 1.24992 -1.58193 
-0.77173 0.78006 -1.76090 
-0.32033 1.04434 -1.76336 
-0.78146 1.22060 -1.47937 
-0.46866 0.80408 -1.85485 
-0.92981 0.98034 -1.57092 
-0.78075 1.73329 -0.80155 
-1.25061 1.55384 -0.51157 
-0.80500 1.82748 -0.49876 
-1.04525 1.73566 -0.35047 
-0.98081 1.54275 -0.95936 
-1.22110 1.45104 -0.81110 
2.03208 0.29019 -0.02576 
2.03195 -0.29003 -0.02523 
2.02588 0.14869 0.25907 
2.02754 0.14820 -0.31042 
2.02579 -0.14789 0.25934 
2.02750 -0.14861 -0.31015 
1.73149 0.77303 0.75541 
1.55200 0.48420 1.22646 
1.54069 0.93075 0.95560 
1.44892 0.78317 1.19654 
1.82567 0.47069 0.77960 
1.73379 0.32301 1.02014 
1.73529 0.77272 -0.80760 
1.55633 0.48208 -1.27691 
1.54496 0.93045 -1.00785 
1.45341 0.78184 -1.24782 
1.82964 0.46971 -0.83144 
1.73817 0.32108 -1.07144 
1.25164 -1.55471 -0.50718 
0.78254 -1.73465 -0.79767 
1.04593 -1.73610 -0.34597 
1.22282 -1.45248 -0.80705 
0.80615 -1.82821 -0.49453 
0.98286 -1.54442 -0.95556 
1.24913 -1.55148 0.45885 
0.77947 -1.72904 0.74883 
1.04438 -1.73367 0.29780 
1.21907 -1.44772 0.75838 
0.80417 -1.82449 0.44608 
0.97898 -1.53856 0.90679 
1.73111 -0.77069 0.75671 
1.55242 -0.47952 1.22712 
1.82544 -0.46827 0.78039 
1.73378 -0.31948 1.02064 
1.54052 -0.92768 0.95709 
1.44945 -0.77897 1.19765 
1.73528 -0.77397 -0.80627 
1.55639 -0.48409 -1.27612 
1.82963 -0.47101 -0.83063 
1.73819 -0.32277 -1.07090 
1.54502 -0.93204 -1.00629 
1.45351 -0.78381 -1.24654 
0.00065 -2.03194 -0.31503 
-0.00002 -2.02938 0.26552 
0.28513 -2.02601 -0.17286 
0.28468 -2.02468 0.12402 
-0.28416 -2.02628 -0.17353 
-0.28440 -2.02500 0.12333 
0.48473 -1.25252 -1.57950 
0.77505 -0.78291 -1.75880 
0.78439 -1.22306 -1.47654 
0.93286 -0.98294 -1.56827 
0.32367 -1.04719 -1.76148 
0.47211 -0.80705 -1.85312 
-0.48135 -1.25261 -1.58030 
-0.77154 -0.78300 -1.75995 
-0.32007 -1.04723 -1.76198 
-0.78120 -1.22321 -1.47784 
-0.46846 -0.80710 -1.85381 
-0.92960 -0.98307 -1.56974 
-0.78045 -1.73501 -0.79924 
-1.25041 -1.55530 -0.50974 
-0.80469 -1.82871 -0.49626 
-0.98055 -1.54476 -0.95743 
-1.04496 -1.73677 -0.34823 
-1.22091 -1.45291 -0.80940 
0.48256 -1.24789 1.53124 
0.77880 -0.78155 1.71410 
0.78120 -1.21725 1.42878 
0.93162 -0.97866 1.52089 
0.32474 -1.04716 1.71536 
0.47454 -0.80549 1.81410 
-0.48548 -1.24715 1.53121 
-0.77671 -0.78219 1.71392 
-0.32598 -1.04529 1.71619 
-0.78339 -1.21709 1.42816 
-0.47068 -0.80266 1.81570 
-0.93255 -0.97928 1.51991 
-0.78121 -1.72990 0.74699 
-1.25047 -1.55257 0.45601 
-0.80505 -1.82538 0.44415 
-1.04507 -1.73467 0.29537 
-0.98124 -1.53946 0.90467 
-1.22118 -1.44880 0.75566 
0.37424 -0.10836 2.10600 
-0.13994 -0.08703 2.25785 
0.29976 0.14348 2.15141 
0.03318 0.33171 2.15422 
0.19073 -0.39108 2.08439 
-0.16881 -0.39853 2.09077 
-1.55416 0.48241 1.22520 
-1.73343 0.77211 0.75349 
-1.45154 0.78123 1.19528 
-1.54315 0.92946 0.95399 
-1.73600 0.32187 1.01848 
-1.82765 0.46983 0.77761 
-1.55487 -0.48081 1.22471 
[...]
CELL_DATA 1942
SCALARS Strain double 
LOOKUP_TABLE default 
-0.08726
-0.08777
-0.08786
-0.08679
-0.08805
-0.08787
-0.08739
-0.08761
-0.08765
-0.08736
-0.08766
-0.08784
-0.08793
-0.08749
-0.08749
-0.08800
-0.08788
-0.08780
-0.08745
-0.08750
-0.08742
-0.08773
-0.08759
-0.08755
-0.08741
-0.08855
-0.08650
-0.08773
-0.08730
-0.08853
-0.09996
-0.07479
-0.07157
-0.10118
-0.06964
-0.09636
-0.09718
-0.07228
-0.07768
-0.07473
-0.08736
-0.08759
-0.08751
-0.08740
-0.08757
-0.08740
-0.08736
-0.08758
-0.08755
-0.08760
-0.08795
-0.08747
-0.08715
-0.08755
-0.08787
-0.08741
-0.08795
-0.08732
-0.08781
-0.08766
-0.03429
-0.03439
0.06927
0.06949
0.06943
0.06933
-0.03478
-0.03455
0.06887
0.07073
0.07022
0.06827
-0.03141
-0.03775
0.07563
0.06557
0.07481
0.08370
-0.02953
-0.03866
0.06234
0.07744
0.08616
0.07122
-0.03532
-0.03525
0.07009
0.07033
0.06980
0.06998
-0.03404
-0.03412
0.06952
0.06932
0.06922
0.06960
-0.03399
-0.03394
0.06929
0.06973
0.06969
0.06938
-0.03404
-0.03400
0.06973
0.06930
0.06941
0.06969
-0.03385
-0.03385
0.06943
0.06913
0.06910
0.06950
-0.03443
-0.03444
0.06957
0.06928
0.06938
0.06936
-0.03343
-0.03316
0.06751
0.07068
0.07078
0.06727
-0.03429
-0.03429
0.06983
0.06946
0.06935
0.06990
-0.03424
-0.03415
0.06946
0.06959
0.06950
0.06936
-0.03495
-0.03524
0.07032
0.06825
0.06861
0.07058
-0.03297
-0.03228
0.06937
0.06779
0.06826
0.06838
-0.03421
-0.03420
0.06930
0.06989
0.06982
0.06939
-0.03397
-0.03372
0.06910
0.06901
0.06917
0.06902
-0.03401
-0.03397
0.06943
0.06965
0.06971
0.06950
-0.03393
-0.03389
0.06972
0.06930
0.06938
0.06969
-0.03397
-0.03397
0.06959
0.06915
0.06920
0.06967
-0.02864
-0.03441
0.06866
0.07125
0.06366
0.06847
-0.03135
-0.04395
0.06041
0.07636
0.08072
0.07454
-0.03510
-0.03472
0.06912
0.07031
0.07118
0.06875
-0.19208
0.03915
-0.01751
-0.10452
0.07667
-0.18330
-0.03145
-0.03207
0.06966
0.06747
0.06657
0.07041
-0.03190
-0.03241
0.06919
0.06869
0.06796
0.06929
-0.03406
-0.03406
0.06955
0.06963
0.06964
0.06955
-0.03429
-0.03430
0.06946
0.06980
0.06988
0.06936
-0.03439
-0.03443
0.06955
0.06990
0.06995
0.06949
-0.03441
-0.03435
0.06996
0.06936
0.06930
0.06969
-0.06546
-0.04498
0.07930
0.07981
0.03389
0.03368
-0.06599
-0.04552
0.07916
0.08078
0.03466
0.03329
-0.06609
-0.04534
0.08143
0.07956
0.03405
0.03671
-0.06424
-0.04278
0.07927
0.08022
0.03541
0.03302
-0.06621
-0.04583
0.08013
0.07995
0.03415
0.03495
-0.06596
-0.04528
0.07990
0.07984
0.03416
0.03426
-0.06543
-0.04481
0.07990
0.07945
0.03381
0.03423
-0.06560
-0.04488
0.07951
0.08013
0.03441
0.03397
-0.06564
-0.04493
0.08014
0.07952
0.03400
0.03443
-0.06537
-0.04469
0.07985
0.07942
0.03372
0.03417
-0.06579
-0.04525
0.08017
0.07888
0.03355
0.03480
-0.06580
-0.04505
0.07986
0.07976
0.03402
0.03401
-0.06599
-0.04530
0.08004
0.07954
0.03398
0.03415
-0.06532
-0.04445
0.07859
0.08019
0.03440
0.03280
-0.06564
-0.04507
0.07985
0.07954
0.03399
0.03428
-0.06604
-0.04532
0.07987
0.07958
0.03410
0.03409
-0.06590
-0.04516
0.07991
0.07971
0.03396
0.03409
-0.06602
-0.04557
0.08022
0.07885
0.03343
0.03484
-0.06521
-0.04422
0.07983
0.07865
0.03286
0.03378
-0.06561
-0.04501
0.07951
0.07980
0.03424
0.03393
-0.06549
-0.04490
0.07986
0.07963
0.03401
0.03423
-0.06574
-0.04498
0.07979
0.07983
0.03406
0.03408
-0.06559
-0.04488
0.07967
0.08010
0.03437
0.03411
-0.06553
-0.04481
0.08010
0.07959
0.03402
0.03440
-0.06545
-0.04479
0.07993
0.07954
0.03389
0.03430
-0.06662
-0.04597
0.07878
0.08075
0.03507
0.03296
-0.06462
-0.04425
0.07893
0.07897
0.03322
0.03334
-0.06652
-0.04593
0.07988
0.08014
0.03455
0.03193
-0.06548
-0.04492
0.07912
0.08064
0.03331
0.03265
-0.06657
-0.04594
0.07912
0.08107
0.03514
0.03375
-0.06230
-0.03671
0.07939
0.08653
0.03524
0.03071
-0.06107
-0.04317
0.07964
0.07599
0.03370
0.03675
-0.05884
-0.04158
0.07657
0.07464
0.03335
0.03505
-0.05761
-0.03264
0.07247
0.07372
0.03111
0.02372
-0.03081
-0.18132
0.14672
0.11542
0.02600
0.02641
-0.06146
-0.04124
0.08152
0.08022
0.03140
0.03765
-0.05692
-0.04134
0.06988
0.08017
0.03502
0.03148
-0.03071
0.13211
0.12453
0.02684
0.02653
-0.06131
-0.04167
0.08087
0.07530
0.03158
0.03714
-0.06145
-0.04215
0.07839
0.07758
0.03453
0.03451
-0.06538
-0.04473
0.07986
0.07979
0.03403
0.03422
-0.06569
-0.04509
0.07980
0.08017
0.03447
0.03409
-0.06560
-0.04499
0.08016
0.07974
0.03402
0.03446
-0.06542
-0.04477
0.07981
0.07989
0.03414
0.03420
-0.06558
-0.04490
0.07986
0.07995
0.03429
0.03422
-0.06543
-0.04479
0.07983
0.07982
0.03420
0.03405
-0.06536
-0.04470
0.07977
0.07984
0.03420
0.03400
-0.06558
-0.04490
0.07992
0.07985
0.03421
0.03429
-0.06566
-0.04507
0.07974
0.08016
0.03444
0.03402
-0.06572
-0.04515
0.07980
0.08018
0.03450
0.03410
-0.06630
-0.04592
0.08016
0.07975
0.03445
0.03503
-0.06542
-0.04470
0.07976
0.07963
0.03379
0.03390
-0.06474
-0.04352
0.07909
0.07987
0.03362
0.03286
-0.06568
-0.04509
0.07979
0.07974
0.03415
0.03426
-0.06597
-0.04530
0.08002
0.07980
0.03433
0.03425
-0.06545
-0.04480
0.07957
0.07980
0.03402
0.03378
-0.06611
-0.04549
0.07992
0.07969
0.03406
0.03474
-0.06495
-0.04378
0.07950
0.07932
0.03349
0.03347
-0.06592
-0.04528
0.07993
0.07989
0.03425
0.03439
-0.06574
-0.04512
0.07946
0.08001
0.03461
0.03384
0.07170
0.07159
0.02010
0.02070
0.01731
0.01688
0.07212
0.07234
0.02000
0.02030
0.01700
0.01678
0.07193
0.07196
0.02042
0.02019
0.01714
0.01717
0.07188
0.07190
0.02061
0.02004
0.01691
0.01750
0.07391
0.07512
0.01939
0.01957
0.01767
0.01458
0.07233
0.07203
0.02009
0.02022
0.01692
0.01708
0.07036
0.07008
0.02139
0.02067
0.01748
0.01838
0.07661
0.07506
0.02502
0.02462
0.02835
0.02472
0.07348
0.07333
0.02122
0.01963
0.01579
0.01830
0.10726
-0.08314
0.05004
0.02687
0.06374
0.02669
0.07562
0.07372
0.01793
0.02188
0.01716
0.01571
0.10124
0.00334
0.04495
0.02650
0.05331
0.02628
0.07136
0.07156
0.02424
0.01872
0.01665
0.02040
0.07197
0.07175
0.02082
0.01998
0.01674
0.01760
0.07206
0.07111
0.02199
0.01937
0.01578
0.01958
0.07170
0.07173
0.02059
0.02066
0.01742
0.01747
0.07218
0.07226
0.02024
0.02042
0.01734
0.01703
0.07226
0.07226
0.02036
0.02041
0.01731
0.01725
0.07214
0.07206
0.02027
0.02075
0.01752
0.01704
0.07196
0.07202
0.02056
0.02059
0.01737
0.01739
0.07171
0.07163
0.02071
0.02053
0.01741
0.01749
0.07201
0.07209
0.02055
0.02052
0.01731
0.01739
0.07213
0.07205
0.02027
0.02071
0.01748
0.01702
0.07211
0.07221
0.02015
0.02054
0.01743
0.01697
0.07240
0.07284
0.02037
0.01917
0.01609
0.01721
0.07175
0.07178
0.02032
0.02066
0.01752
0.01707
0.07201
0.07207
0.02065
0.01922
0.01611
0.01780
0.07176
0.07175
0.02031
0.02064
0.01751
0.01710
0.07012
0.07029
0.02222
0.02012
0.01712
0.01829
0.07244
0.07244
0.02035
0.02028
0.01707
0.01712
0.07218
0.07248
0.02012
0.01989
0.01686
0.01674
0.07218
0.07225
0.02033
0.02034
0.01726
0.01714
0.07188
0.07174
0.02044
0.02025
0.01697
0.01745
0.07185
0.07188
0.02059
0.02061
0.01735
0.01747
0.07074
0.07079
0.02134
0.01975
0.01631
0.01804
0.07123
0.07136
0.02116
0.01963
0.01659
0.01771
0.07296
0.07226
0.01993
0.01862
0.01644
0.01617
0.07002
0.06936
0.02206
0.01914
0.01736
0.01829
0.07200
0.07209
0.02073
0.02039
0.01716
0.01752
0.07186
0.07200
0.02035
0.02028
0.01726
0.01716
0.07150
0.07156
0.01981
0.02106
0.01752
0.01678
0.07224
0.07225
0.02049
0.02039
0.01727
0.01737
0.07208
0.07212
0.02055
0.02053
0.01732
0.01738
0.07173
0.07168
0.02068
0.02066
0.01754
0.01747
0.07196
0.07202
0.02055
0.02060
0.01741
0.01738
0.07215
0.07210
0.02023
0.02080
0.01759
0.01698
0.07188
0.07223
0.02024
0.02035
0.01718
0.01691
0.07226
0.07234
0.02007
0.02059
0.01744
0.01692
0.08605
0.08198
0.01474
0.01693
0.01004
0.00974
0.07797
-0.17944
0.06098
0.02581
0.04398
0.02594
0.07636
0.07482
0.01793
0.02034
0.01473
0.01718
0.09095
-0.17468
0.06590
0.02590
0.05018
0.02603
0.07370
0.07251
0.02077
0.01997
0.01564
0.01865
0.07121
0.07129
0.02155
0.01991
0.01704
0.01874
0.06937
0.06988
0.02263
0.02094
0.01788
0.01903
0.07296
0.07276
0.01902
0.02085
0.01784
0.01590
0.07188
0.07191
0.01948
0.02132
0.01859
0.01607
0.07245
0.07247
0.02025
0.02037
0.01716
0.01700
0.07179
0.07177
0.02066
0.02043
0.01717
0.01755
0.07198
0.07203
0.02075
0.02013
0.01696
0.01758
0.07047
0.07126
-0.00599
-0.00630
0.07202
-0.00531
-0.00644
0.07053
-0.00609
-0.00421
0.07115
-0.00574
-0.00643
-0.00564
-0.00506
0.07116
0.07111
-0.00564
-0.00558
0.07074
-0.00610
-0.00571
0.07136
-0.00550
-0.00591
0.07075
-0.00588
-0.00547
-0.00613
-0.00576
0.07122
0.07035
-0.00619
-0.00539
0.07089
-0.00591
-0.00577
0.07123
0.07080
-0.00581
-0.00570
-0.00575
-0.00657
-0.00596
-0.00586
0.07109
0.07081
-0.00573
-0.00573
0.07125
0.07080
-0.00602
-0.00574
0.07030
-0.00628
-0.00533
-0.00661
-0.00605
-0.00592
-0.00601
0.07111
0.07090
-0.00591
-0.00570
0.07115
-0.00569
-0.00568
0.07132
-0.00553
-0.00578
0.07085
-0.00585
-0.00552
-0.00596
-0.00565
0.07021
0.07213
-0.00467
-0.00670
0.07034
-0.00681
-0.00670
0.06979
-0.00656
-0.00548
0.07202
-0.00589
-0.00702
-0.00468
-0.00600
0.06733
0.09415
-0.00289
-0.01477
0.05985
-0.00531
-0.00186
0.06089
-0.00610
-0.00408
0.09764
-0.00320
-0.02753
-0.03362
-0.02762
0.09061
0.06811
-0.01814
-0.00331
0.09462
0.06272
-0.02376
-0.00770
-0.02513
-0.02638
0.06256
-0.00649
-0.00182
-0.00225
-0.00610
0.07106
0.07111
-0.00581
-0.00573
0.07133
-0.00547
-0.00575
0.07100
-0.00583
-0.00550
0.07119
-0.00571
-0.00575
-0.00557
-0.00563
0.07116
0.07100
-0.00576
-0.00578
0.07109
0.07103
-0.00575
-0.00583
-0.00564
-0.00558
0.07133
-0.00551
-0.00584
-0.00546
-0.00578
0.07127
0.07079
-0.00558
-0.00502
0.07079
-0.00621
-0.00584
0.07101
-0.00627
-0.00645
0.07115
-0.00568
-0.00588
-0.00538
-0.00571
0.07098
0.07092
-0.00603
-0.00606
0.07103
-0.00566
-0.00536
0.07063
-0.00635
-0.00607
0.07123
-0.00559
-0.00570
-0.00534
-0.00606
0.05612
0.05597
0.07686
0.07719
0.05620
0.05636
0.07726
0.07719
-0.01476
-0.01600
0.04940
-0.01491
-0.01619
0.04934
-0.01626
0.04947
-0.01637
0.04975
0.05693
0.05537
0.07660
0.07825
0.05560
0.05720
0.07779
0.07615
-0.01515
-0.01654
0.04994
-0.01485
-0.01672
0.04770
-0.01639
0.04924
-0.01620
0.05080
0.05463
0.05852
0.07897
0.07840
0.05529
0.07050
0.07850
0.07174
-0.01788
-0.01644
0.05147
-0.00179
-0.01357
0.05349
-0.01480
0.05025
-0.02149
0.03908
0.05950
0.05213
0.07675
0.07863
0.06665
0.05950
0.07381
0.07775
-0.00412
-0.01201
0.05642
-0.01610
-0.01360
0.04864
-0.02529
0.03856
-0.01634
0.05285
0.05637
0.05719
0.07773
0.07755
0.05674
0.05717
0.07760
0.07747
-0.01546
-0.01671
0.04949
-0.01606
-0.01769
0.05001
-0.01680
0.05004
-0.01730
0.05113
0.05602
0.05640
0.07730
0.07690
0.05625
0.05608
0.07716
0.07728
-0.01466
-0.01598
0.04948
-0.01616
0.04948
-0.01453
-0.01585
0.04979
-0.01601
0.04935
0.05654
0.05614
0.07698
0.07753
0.05613
0.05645
0.07735
0.07715
-0.01443
-0.01588
0.04981
-0.01451
-0.01597
0.04955
-0.01577
0.04939
-0.01586
0.04981
0.05617
0.05655
0.07753
0.07698
0.05644
0.05615
0.07719
0.07733
-0.01457
-0.01602
0.04960
-0.01448
-0.01593
0.04983
-0.01592
0.04980
-0.01582
0.04938
0.05587
0.05633
0.07724
0.07682
0.05609
0.05595
0.07698
0.07715
-0.01433
-0.01577
0.04924
-0.01570
0.04935
-0.01438
-0.01575
0.04973
-0.01581
0.04927
0.05611
0.05623
0.07741
0.07697
0.05628
0.05615
0.07722
0.07703
-0.01535
-0.01677
0.04953
-0.01459
-0.01600
0.04943
-0.01678
0.04988
-0.01602
0.04942
0.05699
0.05445
0.07552
0.07797
0.05463
0.05824
0.07847
0.07470
-0.01369
-0.01517
0.05038
-0.01515
0.04772
-0.01450
-0.01585
0.04795
-0.01605
0.05090
0.05621
0.05661
0.07746
0.07702
0.05666
0.05620
0.07722
0.07764
-0.01482
-0.01620
0.04965
-0.01619
0.04993
-0.01480
-0.01617
0.04999
-0.01618
0.04946
0.05621
0.05619
0.07725
0.07726
0.05620
0.05641
0.07728
0.07706
-0.01482
-0.01632
0.04939
-0.01462
-0.01611
0.04948
-0.01612
0.04969
-0.01593
0.04980
0.05541
0.05716
0.07786
0.07613
0.05709
0.05531
0.07622
0.07795
-0.01546
-0.01661
0.04897
-0.01554
-0.01680
0.05039
-0.01695
0.05020
-0.01736
0.04821
0.05471
0.05575
0.07723
0.07583
0.05584
0.05589
0.07535
0.07467
-0.01365
-0.01544
0.04810
-0.01443
0.04954
-0.01357
-0.01505
0.04858
-0.01497
0.04924
0.05659
0.05614
0.07697
0.07743
0.05614
0.05664
0.07763
0.07715
-0.01474
-0.01613
0.04999
-0.01611
0.04941
-0.01472
-0.01611
0.04958
-0.01608
0.04992
0.05603
0.05604
0.07706
0.07711
0.05562
0.05572
0.07651
0.07652
-0.01432
-0.01594
0.04922
-0.01543
0.04908
-0.01442
-0.01603
0.04933
-0.01553
0.04924
0.05650
0.05627
0.07713
0.07750
0.05626
0.05643
0.07731
0.07727
-0.01444
-0.01588
0.04976
-0.01579
0.04953
-0.01455
-0.01599
0.04967
-0.01590
0.04979
0.05616
0.05654
0.07751
0.07702
0.05644
0.05612
0.07714
0.07735
-0.01446
-0.01590
0.04956
-0.01437
-0.01581
0.04983
-0.01583
0.04979
-0.01572
0.04937
0.05601
0.05648
0.07736
0.07692
0.05631
0.05593
0.07693
0.07734
-0.01458
-0.01597
0.04945
-0.01443
-0.01581
0.04987
-0.01596
0.04953
-0.01584
0.04926
0.05315
0.04515
0.07353
0.08147
0.04742
0.06631
0.07169
0.05489
-0.01492
-0.01476
0.04928
-0.01086
0.04687
-0.00070
-0.01716
0.02406
-0.02490
0.03970
0.05204
0.05132
0.07768
0.07750
0.07289
0.05394
0.06086
0.08026
-0.00560
-0.01750
0.03231
-0.01949
-0.01524
0.05080
-0.03575
0.03412
-0.01714
0.05100
0.05721
0.05589
0.07670
0.07868
0.05596
0.05728
0.07762
0.07686
-0.01528
-0.01677
0.05004
-0.01646
0.04938
-0.01516
-0.01744
0.04822
-0.01656
0.05124
-0.11516
0.12135
0.41382
-0.15037
0.00281
0.17748
-0.23433
-0.07462
-0.28012
-0.00624
0.05748
0.00821
0.13989
-0.03359
0.05366
0.05811
0.07811
0.07344
0.05598
0.05425
0.07591
0.07758
-0.01185
-0.01265
0.04818
-0.01399
0.04865
-0.01337
-0.01486
0.05117
-0.01497
0.04752
0.05563
0.05642
0.07698
0.07532
0.05576
0.05519
0.07662
0.07681
-0.01309
-0.01474
0.04877
-0.01471
0.04948
-0.01282
-0.01382
0.04979
-0.01470
0.04809
0.05643
0.05636
0.07728
0.07737
0.05635
0.05643
0.07735
0.07728
-0.01454
-0.01594
0.04973
-0.01594
0.04966
-0.01454
-0.01594
0.04967
-0.01595
0.04975
0.05663
0.05616
0.07718
0.07763
0.05627
0.05659
0.07742
0.07711
-0.01485
-0.01620
0.04989
-0.01625
0.04969
-0.01476
-0.01614
0.04941
-0.01613
0.04999
0.05671
0.05626
0.07725
0.07767
0.05637
0.05668
0.07754
0.07726
-0.01493
-0.01626
0.04999
-0.01636
0.04975
-0.01491
-0.01625
0.04955
-0.01634
0.05005
0.05630
0.05645
0.07761
0.07712
0.05678
0.05603
0.07698
0.07743
-0.01535
-0.01683
0.04975
-0.01663
0.05048
-0.01454
-0.01598
0.04963
-0.01590
0.04933
-0.01701
-0.01762
-0.01724
-0.01777
0.08509
0.08573
-0.01766
-0.01816
0.08694
-0.01663
-0.01463
0.08600
-0.01590
-0.01826
0.08620
-0.01753
-0.01713
-0.01760
-0.01701
0.08561
0.08556
-0.01699
-0.01713
0.08525
-0.01724
-0.01728
0.08588
-0.01718
-0.01693
0.08522
-0.01746
-0.01748
-0.01730
-0.01658
0.08577
0.08410
-0.01731
-0.01734
0.08570
-0.01802
-0.01713
-0.01725
-0.01729
0.08605
0.08529
-0.01804
-0.01693
-0.01729
-0.01727
0.08566
0.08529
-0.01762
-0.01762
-0.01739
-0.01727
0.08586
0.08568
-0.01776
-0.01648
0.08429
-0.01723
-0.01729
-0.01705
-0.01712
0.08551
0.08541
-0.01735
-0.01716
0.08560
-0.01724
-0.01716
0.08586
-0.01706
-0.01699
0.08529
-0.01822
-0.01633
-0.01792
-0.01839
0.08470
0.08516
-0.01639
-0.01805
0.08490
-0.01850
-0.01788
0.08900
-0.01727
-0.01848
0.08708
-0.01547
-0.01625
0.00945
-0.06656
0.08686
0.06816
-0.01737
-0.01466
0.08349
-0.01586
-0.01289
0.08143
0.02057
-0.07078
0.02131
0.00931
-0.06701
-0.01797
-0.01384
0.05309
0.08606
0.01674
-0.06896
-0.01580
-0.01705
0.02229
0.08671
-0.01664
-0.01470
0.08292
-0.01694
-0.01734
-0.01703
-0.01715
0.08563
0.08557
-0.01733
-0.01725
0.08599
-0.01723
-0.01696
0.08557
-0.01708
-0.01716
0.08567
-0.01709
-0.01716
-0.01698
-0.01732
0.08562
0.08560
-0.01701
-0.01716
-0.01690
-0.01737
0.08556
0.08564
-0.01728
-0.01737
0.08600
-0.01786
-0.01691
-0.01815
-0.01589
0.08555
0.08516
-0.01707
-0.01740
0.08563
-0.01650
-0.01803
0.08608
-0.01725
-0.01725
0.08541
-0.01713
-0.01757
-0.01704
-0.01757
0.08552
0.08578
-0.01784
-0.01635
0.08515
-0.01639
-0.01769
0.08527
-0.01753
-0.01711
0.08562
0.04812
0.04815
0.04842
0.04862
0.04808
0.04808
0.04954
0.04637
0.04922
0.06732
0.04507
0.04766
0.05068
0.04699
0.04811
0.04809
0.04860
0.04848
0.04855
0.04835
0.04841
0.04805
0.04851
0.04855
0.04903
0.04832
0.04685
0.04815
0.04813
0.04875
0.04866
0.04797
0.04783
0.04860
0.04823
0.04841
0.04758
0.04821
0.04696
0.04814
0.04808
0.04841
0.04854
0.04846
0.04836
0.04805
0.04853
0.04868
0.09099
-0.00430
-0.00709
0.05035
0.04886
0.04710
0.04647
0.04959
0.04855
0.04878
0.04809
0.04829
-0.19850
0.57101
-0.06966
0.21600
0.08349
-0.11740
-0.21203
0.19412
-0.19572
-0.20828
0.01807
-0.27633
-0.11413
-0.28943
0.35615
-0.09933
-0.18345
-0.17881
-0.17940
0.06789
-0.18347
-0.06393
-0.08496
-0.17106
-0.10868
-0.17986
0.10000
