# vtk DataFile Version 3.0
Point representing Sub_cellular elem model
ASCII

DATASET UNSTRUCTURED_GRID
POINTS 757 float
0.01064 1.71241 0.57310 
0.00655 1.72829 -1.58490 
1.74984 1.06407 -0.51412 
1.75233 -1.08932 -0.51666 
0.00751 -1.75411 -1.58849 
0.01703 -1.74850 0.56429 
1.09662 -0.01344 1.23635 
-1.05148 -0.02000 1.25799 
1.08351 -0.01159 -2.25385 
-1.06964 -0.01221 -2.25151 
-1.72654 1.05754 -0.50270 
-1.72850 -1.08843 -0.50774 
0.00751 2.03246 -0.50560 
1.03266 1.64150 0.12449 
0.64612 1.00365 1.16368 
-0.61145 0.99646 1.18077 
-1.01023 1.63335 0.13376 
1.03308 1.64789 -1.14501 
0.64104 1.01494 -2.17175 
-0.62779 1.01418 -2.17006 
-1.01768 1.64424 -1.13961 
2.06348 -0.01202 -0.51723 
1.67098 0.62063 0.50978 
1.66891 0.62313 -1.54028 
1.03506 -1.67353 -1.14852 
1.03825 -1.67178 0.11967 
1.67443 -0.64721 0.50774 
1.66935 -0.64661 -1.54129 
0.01044 -2.06426 -0.51230 
0.64137 -1.03842 -2.17297 
-0.62755 -1.03859 -2.17164 
-1.01786 -1.67317 -1.14485 
0.65053 -1.03408 1.15896 
-0.60658 -1.03501 1.16036 
-1.00950 -1.67010 0.12423 
0.07791 0.63231 2.06409 
-1.63433 0.61225 0.52649 
-1.63548 -0.64714 0.51999 
0.00667 -0.01171 -2.56343 
-1.65246 0.62084 -1.53353 
-1.65287 -0.64706 -1.53534 
-2.03756 -0.01454 -0.50503 
0.00874 1.94595 0.06684 
0.53104 1.74684 0.38815 
0.33439 1.42094 0.91622 
-0.30815 1.41742 0.92140 
-0.51007 1.74178 0.39344 
0.00684 1.95578 -1.07851 
0.53003 1.75857 -1.40434 
0.33006 1.43619 -1.92853 
-0.31705 1.43557 -1.92746 
-0.51642 1.75689 -1.40198 
1.45509 1.40381 -0.18886 
1.45537 1.40599 -0.83589 
1.98131 0.55972 -0.51601 
1.78044 0.88181 0.00826 
1.78015 0.88365 -1.03777 
1.98263 -0.58409 -0.51736 
1.45778 -1.43146 -0.83904 
1.45921 -1.43113 -0.19255 
1.78365 -0.90780 0.00587 
1.78136 -0.90774 -1.03959 
0.53148 -1.78429 -1.40801 
0.00852 -1.98409 -1.08371 
0.33072 -1.46041 -1.93078 
-0.31653 -1.46043 -1.93001 
-0.51576 -1.78417 -1.40643 
0.53749 -1.78032 0.38171 
0.01340 -1.98092 0.05909 
0.34153 -1.45449 0.90857 
-0.30117 -1.45396 0.90922 
-0.50590 -1.77925 0.38365 
0.91611 0.50968 1.26892 
1.43343 0.30977 0.93212 
1.43651 -0.33648 0.93026 
0.92272 -0.54043 1.26367 
0.59339 -0.01558 1.50743 
-0.87478 0.50347 1.29510 
-0.87209 -0.54125 1.27893 
-0.55741 -0.01467 1.53409 
-1.39079 0.30234 0.95212 
-1.39065 -0.33941 0.94602 
0.90188 0.51209 -2.28333 
1.42611 0.31215 -1.96120 
1.42623 -0.33538 -1.96160 
0.90201 -0.53532 -2.28387 
0.57817 -0.01160 -2.48289 
-0.88835 0.51140 -2.28131 
-0.88826 -0.53571 -2.28207 
-0.56477 -0.01192 -2.48196 
-1.41146 0.31097 -1.95703 
-1.41150 -0.33604 -1.95768 
-1.43143 1.39562 -0.17770 
-1.43659 1.40055 -0.82718 
-1.75091 0.87379 0.02214 
-1.76070 0.87948 -1.02829 
-1.95606 0.55465 -0.50362 
-1.43790 -1.43075 -0.83274 
-1.43305 -1.42955 -0.18521 
-1.75297 -0.90680 0.01649 
-1.76189 -0.90765 -1.03168 
-1.95746 -0.58433 -0.50641 
0.56303 1.93088 -0.20189 
-0.54580 1.92668 -0.19757 
0.56289 1.93532 -0.81380 
-0.54800 1.93245 -0.81044 
0.90782 1.37274 0.69774 
1.05724 1.74686 -0.51008 
1.40216 1.18945 0.38742 
0.01593 1.02806 1.27805 
1.21627 0.88362 0.88292 
0.32506 0.53033 1.50368 
-0.87969 1.36396 0.70983 
-0.27980 0.52690 1.52911 
-1.17958 0.87408 0.90185 
-1.03908 1.74089 -0.50281 
-1.37213 1.17947 0.40164 
0.90720 1.38315 -1.71707 
1.40226 1.19454 -1.41294 
0.00651 1.03915 -2.27256 
1.21318 0.88913 -1.90708 
0.31220 0.54491 -2.46201 
-0.89334 1.38127 -1.71361 
-0.29898 0.54470 -2.46146 
-1.19895 0.88754 -1.90314 
-1.38636 1.19138 -1.40659 
1.96213 0.29327 0.03878 
1.96070 0.29409 -1.07211 
1.96329 -0.31812 0.03798 
1.96108 -0.31771 -1.07271 
1.77557 -0.01267 0.53171 
1.77103 -0.01166 -1.56559 
1.06097 -1.77487 -0.51461 
1.40334 -1.21864 -1.41507 
0.56570 -1.96368 -0.81891 
0.90806 -1.40727 -1.71930 
1.40745 -1.21813 0.38378 
0.56767 -1.96233 -0.20789 
0.91413 -1.40412 0.69304 
1.22188 -0.91348 0.87913 
1.21358 -0.91257 -1.90828 
-0.54694 -1.96332 -0.81690 
-0.54368 -1.96159 -0.20569 
0.00682 -1.06291 -2.27386 
0.31232 -0.56825 -2.46255 
-0.89319 -1.40729 -1.71677 
-0.29885 -0.56839 -2.46207 
-1.19897 -0.91286 -1.90501 
-1.03930 -1.77388 -0.51016 
-1.38691 -1.21856 -1.41014 
0.02381 -1.05821 1.26692 
0.32589 -0.55149 1.49827 
-0.87681 -1.40258 0.69633 
-0.28439 -0.56084 1.49842 
-1.17856 -0.91219 0.88793 
-1.37297 -1.21607 0.39171 
-1.73582 -0.01688 0.54742 
-1.92962 0.28813 0.05330 
-1.93054 -0.31965 0.05126 
-1.75432 -0.01296 -1.55897 
-1.94044 0.29142 -1.06241 
-1.94093 -0.31875 -1.06358 
0.00958 1.84527 0.33100 
0.26993 1.74612 0.49133 
0.17199 1.58338 0.75427 
-0.14850 1.58169 0.75632 
-0.24910 1.74350 0.49405 
0.00666 1.85878 -1.34293 
0.26750 1.76026 -1.50526 
0.16777 1.59969 -1.76668 
-0.15478 1.59930 -1.76610 
-0.25426 1.75946 -1.50417 
1.61979 1.24410 -0.35208 
1.61986 1.24498 -0.67453 
1.88212 0.82320 -0.51509 
1.78194 0.98363 -0.25365 
1.78188 0.98470 -0.77521 
1.88405 -0.84796 -0.51708 
1.62238 -1.27032 -0.67741 
1.62308 -1.27025 -0.35517 
1.78481 -1.00926 -0.25614 
1.78368 -1.00929 -0.77743 
0.26868 -1.78602 -1.50892 
0.00792 -1.88570 -1.34730 
0.16860 -1.62459 -1.76958 
-0.15407 -1.62458 -1.76917 
-0.25339 -1.78597 -1.50818 
0.27646 -1.78108 0.48370 
0.01520 -1.88113 0.32276 
0.17902 -1.61856 0.74574 
-0.14184 -1.61814 0.74626 
-0.24356 -1.78045 0.48468 
1.02272 0.24630 1.26702 
1.27660 0.14674 1.09890 
1.27941 -0.17287 1.09709 
1.02943 -0.27432 1.26264 
0.85787 -0.01399 1.38130 
-0.97840 0.23995 1.29316 
-0.97635 -0.27944 1.28483 
-0.81483 -0.01954 1.40549 
-1.23177 0.14020 1.12052 
-1.23126 -0.17879 1.11650 
1.00339 0.24948 -2.28541 
1.26471 0.14978 -2.12481 
1.26475 -0.17298 -2.12499 
1.00344 -0.27267 -2.28568 
0.84197 -0.01159 -2.38486 
-0.98969 0.24883 -2.28324 
-0.98965 -0.27317 -2.28363 
-0.82841 -0.01206 -2.38330 
-1.25053 0.14894 -2.12166 
-1.25053 -0.17364 -2.12194 
-1.59609 1.23668 -0.34067 
-1.59890 1.23891 -0.66431 
-1.75572 0.97625 -0.24106 
-1.76057 0.97934 -0.76459 
-1.85775 0.81717 -0.50306 
-1.60065 -1.26950 -0.66974 
-1.59811 -1.26900 -0.34691 
-1.75784 -1.00824 -0.24636 
-1.76220 -1.00881 -0.76883 
-1.85955 -0.84745 -0.50707 
0.00805 2.00930 -0.21481 
0.00712 2.01447 -0.79652 
0.29174 2.00652 -0.35799 
-0.27595 2.00449 -0.35592 
0.29150 2.00897 -0.65532 
-0.27671 2.00729 -0.65349 
0.78798 1.71185 0.26469 
1.25742 1.53780 -0.02833 
0.81177 1.80817 -0.03842 
0.98802 1.52253 0.42148 
1.05182 1.71903 -0.18813 
1.22814 1.43364 0.27126 
0.49510 1.22704 1.05338 
0.78945 0.76587 1.23375 
0.79168 1.19889 0.94683 
0.33930 1.02519 1.24452 
0.94209 0.96297 1.03663 
0.48548 0.78244 1.34746 
-0.46518 1.22153 1.06359 
-0.75018 0.75810 1.25760 
-0.30634 1.02110 1.25506 
-0.76037 1.19071 0.96105 
-0.44689 0.77643 1.36831 
-0.90614 0.95404 1.05592 
-0.76639 1.70487 0.27222 
-1.23421 1.52929 -0.01785 
-0.79233 1.80185 -0.03170 
-0.96289 1.51377 0.43199 
-1.03173 1.71189 -0.17991 
-1.20204 1.42418 0.28314 
0.78793 1.72089 -1.28309 
1.25788 1.54183 -0.99438 
0.81190 1.81396 -0.97972 
1.05211 1.72241 -0.83214 
0.98824 1.53131 -1.44192 
1.22863 1.43973 -1.29424 
0.48950 1.23936 -2.06508 
0.77994 0.76996 -2.24523 
0.78932 1.21009 -1.96278 
0.32838 1.03401 -2.24696 
0.93788 0.97009 -2.05498 
0.47687 0.79396 -2.33901 
-0.47639 1.23863 -2.06365 
-0.76655 0.76922 -2.24336 
-0.31531 1.03364 -2.24616 
-0.77587 1.20886 -1.96027 
-0.46368 0.79354 -2.33798 
-0.92427 0.96893 -2.05225 
-0.77361 1.71824 -1.27928 
-1.24099 1.53721 -0.98731 
-0.79676 1.81046 -0.97517 
-1.03551 1.71765 -0.82581 
-0.97374 1.52862 -1.43748 
-1.21299 1.43624 -1.28827 
2.04260 0.27845 -0.51675 
2.04327 -0.30258 -0.51743 
2.03792 0.13633 -0.23279 
2.03711 0.13668 -0.80122 
2.03837 -0.16072 -0.23316 
2.03736 -0.16047 -0.80154 
1.74315 0.75962 0.26539 
1.56652 0.46915 0.73414 
1.55205 0.91600 0.46664 
1.46174 0.76748 0.70665 
1.83876 0.45745 0.28796 
1.74834 0.30896 0.52732 
1.74226 0.76194 -1.29550 
1.56240 0.47161 -1.76449 
1.55122 0.91977 -1.49473 
1.45932 0.77135 -1.73463 
1.83692 0.45892 -1.32022 
1.74486 0.31042 -1.55996 
1.26011 -1.56739 -0.99774 
0.78964 -1.74657 -1.28671 
1.05491 -1.74917 -0.83624 
1.23014 -1.46445 -1.29703 
0.81434 -1.84082 -0.98402 
0.98957 -1.55606 -1.44479 
1.26233 -1.56653 -0.03260 
0.79410 -1.74374 0.25920 
1.05653 -1.74828 -0.19290 
1.23374 -1.46318 0.26700 
0.81702 -1.83910 -0.04385 
0.99423 -1.55354 0.41671 
1.74656 -0.78593 0.26317 
1.56984 -0.49590 0.73222 
1.84094 -0.48297 0.28664 
1.75016 -0.33462 0.52632 
1.55665 -0.94368 0.46371 
1.46649 -0.79561 0.70373 
1.74302 -0.78566 -1.29690 
1.56264 -0.49494 -1.76516 
1.83736 -0.48244 -1.32105 
1.74507 -0.33378 -1.56046 
1.55195 -0.94347 -1.49627 
1.45974 -0.79481 -1.73576 
0.00935 -2.04445 -0.80253 
0.01179 -2.04284 -0.22208 
0.29449 -2.03903 -0.66124 
0.29558 -2.03827 -0.36444 
-0.27475 -2.03880 -0.66021 
-0.27334 -2.03795 -0.36337 
0.48999 -1.26312 -2.06677 
0.78014 -0.79327 -2.24608 
0.78986 -1.23381 -1.96446 
0.93823 -0.99354 -2.05620 
0.32869 -1.05759 -2.24820 
0.47707 -0.81733 -2.33986 
-0.47603 -1.26321 -2.06569 
-0.76639 -0.79355 -2.24451 
-0.31501 -1.05768 -2.24758 
-0.77563 -1.23393 -1.96255 
-0.46347 -0.81751 -2.33901 
-0.92412 -0.99378 -2.05399 
-0.77331 -1.74636 -1.28416 
-1.24174 -1.56685 -0.99280 
-0.79644 -1.84041 -0.98112 
-0.97375 -1.55592 -1.44165 
-1.03579 -1.74852 -0.83213 
-1.21344 -1.46421 -1.29269 
0.50096 -1.25830 1.04757 
0.79499 -0.79797 1.22802 
0.79742 -1.23019 0.94216 
0.94776 -0.99428 1.03193 
0.34378 -1.05358 1.23860 
0.48776 -0.81046 1.34267 
-0.45821 -1.25837 1.04809 
-0.74669 -0.79603 1.23687 
-0.29788 -1.05523 1.23827 
-0.75625 -1.22949 0.94443 
-0.44300 -0.81419 1.34348 
-0.90326 -0.99269 1.03818 
-0.76394 -1.74231 0.26233 
-1.23491 -1.56478 -0.02652 
-0.79085 -1.83789 -0.04050 
-1.03163 -1.74692 -0.18827 
-0.96122 -1.55173 0.42083 
-1.20216 -1.46113 0.27308 
0.00047 -0.51458 1.78028 
-0.20679 -0.50493 2.01991 
0.47408 0.04619 1.75352 
0.43059 -0.44109 2.38215 
-0.42382 -0.25897 1.79594 
-0.54339 -0.09903 2.01812 
-1.52661 0.46112 0.75245 
-1.71005 0.75124 0.28064 
-1.42464 0.75803 0.72462 
-1.51834 0.90639 0.48259 
-1.70964 0.30243 0.54394 
[...]
CELL_DATA 2263
SCALARS Strain double 
LOOKUP_TABLE default 
-0.08310
-0.09045
-0.08770
-0.08483
-0.09270
-0.08725
-0.08799
-0.08730
-0.08777
-0.08766
-0.08725
-0.08860
-0.08765
-0.08867
-0.08777
-0.08709
-0.08781
-0.08763
-0.08875
-0.08842
-0.08737
-0.08780
-0.08761
-0.08756
-0.08754
-0.09161
-0.08514
-0.08444
-0.08868
-0.08914
-0.09766
-0.07903
-0.07144
-0.10136
-0.07270
-0.09591
-0.09883
-0.07417
-0.07832
-0.07543
-0.08727
-0.08760
-0.08774
-0.08723
-0.08769
-0.08749
-0.08756
-0.08737
-0.08741
-0.08732
-0.08855
-0.08892
-0.08525
-0.08559
-0.09082
-0.08850
-0.08789
-0.08705
-0.08690
-0.08928
-0.03152
-0.03227
0.06679
0.06829
0.06872
0.06702
-0.03505
-0.03419
0.06611
0.07248
0.07127
0.06531
-0.03276
-0.04931
0.08261
0.05584
0.07785
0.09368
-0.02760
-0.04947
0.04576
0.09204
0.10447
0.07189
-0.03925
-0.03783
0.06680
0.07827
0.07594
0.06477
-0.03492
-0.03504
0.06975
0.06965
0.06944
0.06989
-0.03373
-0.03372
0.06935
0.06954
0.06945
0.06945
-0.03420
-0.03415
0.06975
0.06985
0.06974
0.06977
-0.03459
-0.03481
0.06797
0.07158
0.07083
0.06817
-0.03313
-0.03302
0.06845
0.06791
0.06778
0.06840
-0.03630
-0.03665
0.06682
0.07121
0.07059
0.06775
-0.03454
-0.03449
0.07025
0.06898
0.06873
0.07040
-0.03406
-0.03397
0.06881
0.06976
0.06947
0.06883
-0.03504
-0.03628
0.07009
0.06780
0.06901
0.07147
-0.03626
-0.03646
0.06855
0.06960
0.06917
0.06900
-0.03498
-0.03485
0.06903
0.07049
0.07037
0.06923
-0.03418
-0.03383
0.06815
0.06989
0.06993
0.06760
-0.03383
-0.03376
0.06914
0.06955
0.06962
0.06927
-0.03414
-0.03414
0.06970
0.06967
0.06972
0.06969
-0.03449
-0.03466
0.06969
0.06957
0.06963
0.06951
-0.03176
-0.05285
0.08621
0.08126
0.05418
0.10239
-0.03486
-0.04585
0.05916
0.08525
0.09638
0.07447
-0.03439
-0.03417
0.06603
0.07093
0.07230
0.06524
0.01532
0.10079
0.19128
0.21620
0.04672
-0.02921
-0.02922
0.07314
0.05983
0.06015
0.07326
-0.03050
-0.03136
0.07043
0.06372
0.06301
0.07037
-0.03405
-0.03399
0.06973
0.06962
0.06957
0.06975
-0.03340
-0.03308
0.06963
0.06847
0.06866
0.06961
-0.03363
-0.03354
0.06953
0.06911
0.06906
0.06952
-0.03753
-0.03719
0.07128
0.07039
0.07022
0.07056
-0.06144
-0.04154
0.07578
0.07814
0.03243
0.02999
-0.06786
-0.04647
0.07579
0.08506
0.03769
0.03011
-0.06692
-0.04789
0.08656
0.07377
0.03157
0.04136
-0.06255
-0.04210
0.07122
0.08718
0.03937
0.02547
-0.07139
-0.05069
0.07826
0.08700
0.04006
0.03278
-0.06491
-0.04373
0.07971
0.07867
0.03278
0.03364
-0.06618
-0.04564
0.08001
0.07984
0.03445
0.03448
-0.06528
-0.04458
0.07968
0.07976
0.03402
0.03404
-0.06579
-0.04509
0.07985
0.08021
0.03445
0.03424
-0.06579
-0.04525
0.07894
0.08048
0.03522
0.03349
-0.06522
-0.04466
0.07976
0.07753
0.03188
0.03416
-0.06671
-0.04598
0.07963
0.08019
0.03443
0.03391
-0.06530
-0.04424
0.07972
0.07818
0.03218
0.03356
-0.06706
-0.04675
0.07805
0.08038
0.03503
0.03320
-0.06594
-0.04536
0.08034
0.07856
0.03330
0.03489
-0.06481
-0.04392
0.07882
0.07860
0.03259
0.03292
-0.06577
-0.04500
0.07876
0.08023
0.03422
0.03319
-0.06577
-0.04535
0.07884
0.07931
0.03365
0.03334
-0.06714
-0.04679
0.07921
0.07965
0.03438
0.03386
-0.06656
-0.04590
0.07903
0.08055
0.03513
0.03378
-0.06538
-0.04474
0.07970
0.07941
0.03368
0.03421
-0.06589
-0.04518
0.07944
0.08015
0.03448
0.03352
-0.06553
-0.04476
0.07950
0.08003
0.03432
0.03393
-0.06561
-0.04496
0.08002
0.07973
0.03420
0.03430
-0.06569
-0.04517
0.08007
0.07963
0.03397
0.03428
-0.06957
-0.04816
0.08012
0.08298
0.03587
0.03415
-0.06399
-0.04410
0.08007
0.07620
0.03123
0.03418
-0.06189
-0.04215
0.08482
0.07176
0.02796
0.04050
-0.06742
-0.04813
0.07356
0.08775
0.04475
0.03184
-0.06665
-0.04543
0.07560
0.08461
0.03645
0.02952
-0.05663
-0.04400
0.08390
0.06619
0.02968
0.04027
-0.06691
-0.04747
0.08062
0.07730
0.03281
0.03603
-0.06518
-0.04689
0.08021
0.07468
0.03137
0.03692
-0.04811
-0.03826
0.07905
0.05914
0.02567
0.03727
-0.02716
-0.26476
0.13357
0.15580
0.02543
0.02555
-0.05987
-0.05065
0.06524
0.08709
0.04873
0.03601
-0.06419
-0.04690
0.08042
0.08219
0.03756
0.03762
-0.04452
0.10985
0.13151
0.02570
0.02545
-0.06135
-0.04047
0.08528
0.07057
0.02584
0.03977
-0.05935
-0.04038
0.08096
0.07161
0.02855
0.03586
-0.06524
-0.04455
0.07961
0.07987
0.03404
0.03406
-0.06576
-0.04522
0.07947
0.08050
0.03475
0.03367
-0.06598
-0.04551
0.08052
0.07962
0.03388
0.03480
-0.06520
-0.04455
0.07969
0.07970
0.03384
0.03409
-0.06567
-0.04494
0.08001
0.07987
0.03431
0.03440
-0.06556
-0.04494
0.07995
0.08010
0.03441
0.03440
-0.06561
-0.04496
0.08008
0.07998
0.03432
0.03444
-0.06541
-0.04478
0.07989
0.08005
0.03434
0.03419
-0.06533
-0.04448
0.08008
0.07961
0.03387
0.03440
-0.06528
-0.04454
0.07996
0.07967
0.03403
0.03431
-0.06723
-0.04748
0.08452
0.07481
0.03104
0.04014
-0.06685
-0.04592
0.08306
0.07762
0.03207
0.03622
-0.06213
-0.04057
0.07335
0.08167
0.03482
0.02740
-0.06383
-0.04354
0.07759
0.07981
0.03384
0.03208
-0.06931
-0.04862
0.08187
0.08046
0.03553
0.03585
-0.06649
-0.04567
0.08040
0.07926
0.03398
0.03459
-0.06585
-0.04507
0.08072
0.07694
0.03188
0.03545
-0.06446
-0.04303
0.07627
0.08030
0.03422
0.03000
-0.06492
-0.04430
0.07893
0.07958
0.03383
0.03308
-0.06789
-0.04765
0.08053
0.08007
0.03518
0.03492
0.06908
0.06888
0.01926
0.02295
0.01899
0.01659
0.07043
0.07004
0.01652
0.02512
0.02081
0.01369
0.07168
0.07203
0.01891
0.02110
0.01838
0.01557
0.06983
0.07016
0.01965
0.02216
0.01981
0.01618
0.07679
0.07969
0.01630
0.01786
0.01822
0.01008
0.07301
0.07249
0.01838
0.02055
0.01702
0.01541
0.06762
0.06819
0.02064
0.02160
0.01851
0.01750
0.07942
0.07292
0.02779
0.02249
0.01431
0.02436
0.07631
0.07488
0.01899
0.01688
0.01152
0.01712
0.11950
-0.17409
0.07791
0.02565
0.07883
0.02524
0.08787
0.08377
0.01166
0.01815
0.00940
0.01348
0.13094
-0.03137
0.08175
0.02549
0.08784
0.02542
0.07531
0.07546
0.02836
0.01083
0.00708
0.02686
0.07664
0.07520
0.01838
0.01798
0.01421
0.01582
0.06479
0.06295
0.02806
0.02012
0.01562
0.02633
0.07184
0.07181
0.02086
0.02023
0.01694
0.01774
0.07251
0.07263
0.02016
0.01983
0.01681
0.01696
0.07213
0.07220
0.02042
0.02072
0.01753
0.01732
0.07183
0.07167
0.02024
0.02102
0.01780
0.01699
0.07207
0.07217
0.02047
0.02067
0.01751
0.01738
0.07256
0.07287
0.02053
0.01988
0.01676
0.01728
0.07219
0.07216
0.02067
0.02061
0.01738
0.01744
0.07226
0.07221
0.02088
0.02008
0.01682
0.01793
0.07075
0.07084
0.02188
0.02022
0.01716
0.01826
0.07133
0.07205
0.01812
0.02029
0.01768
0.01458
0.07065
0.07094
0.01975
0.02144
0.01843
0.01661
0.07031
0.07056
0.01873
0.02101
0.01792
0.01555
0.07106
0.07129
0.01925
0.02160
0.01848
0.01620
0.07174
0.07238
0.01996
0.01730
0.01427
0.01586
0.07302
0.07305
0.01979
0.02006
0.01673
0.01640
0.07144
0.07182
0.02016
0.02021
0.01732
0.01642
0.07251
0.07272
0.01960
0.02029
0.01723
0.01653
0.07161
0.07116
0.02002
0.02076
0.01749
0.01701
0.07142
0.07153
0.02070
0.02057
0.01732
0.01767
0.06996
0.07054
0.01976
0.02048
0.01755
0.01642
0.07206
0.07229
0.02119
0.01825
0.01576
0.01738
0.07635
0.08060
0.01916
0.01613
0.01749
0.01153
0.07325
0.07591
0.02022
0.01657
0.01560
0.01389
0.07186
0.07197
0.02106
0.01999
0.01666
0.01779
0.07243
0.07234
0.01953
0.02035
0.01735
0.01604
0.06955
0.06902
0.02060
0.02154
0.01771
0.01747
0.07217
0.07220
0.02032
0.02060
0.01749
0.01720
0.07190
0.07200
0.02047
0.02073
0.01753
0.01736
0.07213
0.07209
0.02054
0.02050
0.01725
0.01728
0.07226
0.07227
0.02062
0.02047
0.01725
0.01740
0.07216
0.07210
0.02077
0.02034
0.01720
0.01761
0.07233
0.07272
0.02049
0.01856
0.01572
0.01742
0.07184
0.07171
0.02084
0.02024
0.01718
0.01763
0.06655
0.07232
0.02815
0.03392
0.03244
0.02253
0.13795
0.23833
0.10116
0.02518
0.07873
0.02530
0.08117
0.07722
0.01877
0.01541
0.01000
0.01768
0.11780
-0.10893
0.05215
0.02563
0.07252
0.02543
0.07503
0.07370
0.02521
0.01433
0.01018
0.02158
0.06708
0.06663
0.02258
0.02059
0.01766
0.02049
0.06376
0.06480
0.02487
0.02190
0.01889
0.02072
0.07529
0.07456
0.01406
0.02216
0.01903
0.01145
0.07289
0.07293
0.01576
0.02224
0.01987
0.01204
0.07134
0.07148
0.02075
0.02073
0.01776
0.01767
0.07224
0.07247
0.01859
0.02166
0.01807
0.01562
0.07218
0.07252
0.01921
0.02111
0.01780
0.01583
0.06718
0.06995
-0.00795
-0.01062
0.07692
-0.00137
-0.00869
0.06408
-0.00944
-0.00008
0.07630
-0.00316
-0.01306
-0.00045
-0.00524
0.07118
0.07041
-0.00660
-0.00600
0.07104
-0.00541
-0.00544
0.07089
-0.00602
-0.00588
0.07148
-0.00543
-0.00577
-0.00507
-0.00616
0.07058
0.06979
-0.00732
-0.00652
0.07135
-0.00542
-0.00604
0.07134
0.06961
-0.00745
-0.00608
-0.00520
-0.00625
-0.00677
-0.00531
0.07045
0.07009
-0.00723
-0.00678
0.06985
0.07151
-0.00568
-0.00676
0.07107
-0.00602
-0.00699
-0.00535
-0.00601
-0.00494
-0.00612
0.07095
0.07081
-0.00610
-0.00575
0.07126
-0.00548
-0.00598
0.07125
-0.00555
-0.00588
0.07085
-0.00577
-0.00564
-0.00599
-0.00565
0.07155
0.07364
-0.00366
-0.00429
0.06713
-0.00944
-0.00625
0.06527
-0.01133
-0.00398
0.07641
0.00088
-0.00850
-0.00304
-0.00937
0.06362
0.09102
-0.01288
-0.02427
0.06120
-0.00291
-0.00375
0.05088
-0.01193
0.00291
0.10754
-0.01547
-0.04297
-0.02861
-0.03782
0.08456
0.07043
-0.01818
-0.00709
0.09209
0.06781
-0.01797
-0.00285
-0.01422
-0.02455
0.05915
-0.00906
-0.00060
-0.00934
-0.00381
0.07079
0.07122
-0.00581
-0.00589
0.07158
-0.00528
-0.00609
0.07090
-0.00591
-0.00524
0.07108
-0.00599
-0.00587
-0.00553
-0.00546
0.07113
0.07132
-0.00551
-0.00554
0.07128
0.07123
-0.00556
-0.00545
-0.00559
-0.00572
0.07100
-0.00582
-0.00547
-0.00580
-0.00556
0.07457
0.06671
-0.00826
-0.00149
0.06847
-0.00767
-0.00346
0.07252
-0.00603
-0.01079
0.07140
-0.00642
-0.00856
-0.00388
-0.00385
0.07186
0.07002
-0.00612
-0.00511
0.06875
-0.00738
-0.00480
0.07154
-0.00588
-0.00866
0.07085
-0.00633
-0.00720
-0.00501
-0.00499
0.05506
0.05299
0.07377
0.07567
0.05431
0.05546
0.07683
0.07548
-0.01283
-0.01349
0.04890
-0.01201
-0.01249
0.04661
-0.01483
0.04743
-0.01420
0.04843
0.05889
0.05222
0.07341
0.08115
0.05331
0.05754
0.07795
0.07394
-0.01520
-0.01711
0.05132
-0.01444
-0.01741
0.04408
-0.01605
0.04705
-0.01543
0.05152
0.05044
0.05800
0.08252
0.07564
0.05516
0.07889
0.08381
0.06412
-0.02441
-0.01892
0.05256
0.00095
-0.01765
0.03646
-0.02056
0.05172
-0.04495
0.02000
0.06068
0.04252
0.06872
0.08665
0.07367
0.06754
0.07639
0.08581
0.00945
-0.00944
0.03672
-0.02487
-0.01586
0.04720
-0.04479
0.00865
-0.02585
0.06278
0.06264
0.05334
0.07512
0.08545
0.05308
0.06386
0.08295
0.07205
-0.01864
-0.02062
0.05440
-0.01862
-0.02244
0.04338
-0.01911
0.04755
-0.01842
0.05937
0.05653
0.05666
0.07747
0.07724
0.05655
0.05615
0.07725
0.07763
-0.01589
-0.01715
0.05019
-0.01742
0.04966
-0.01519
-0.01648
0.05008
-0.01671
0.04940
0.05625
0.05622
0.07708
0.07727
0.05616
0.05629
0.07712
0.07723
-0.01417
-0.01560
0.04946
-0.01430
-0.01570
0.04964
-0.01554
0.04941
-0.01570
0.04971
0.05657
0.05650
0.07740
0.07761
0.05657
0.05660
0.07743
0.07753
-0.01459
-0.01604
0.04985
-0.01485
-0.01630
0.04981
-0.01593
0.04985
-0.01619
0.05011
0.05783
0.05534
0.07606
0.07821
0.05442
0.05801
0.07991
0.07548
-0.01554
-0.01668
0.05200
-0.01728
0.04739
-0.01490
-0.01615
0.04875
-0.01647
0.05077
0.05435
0.05543
0.07665
0.07556
0.05490
0.05487
0.07586
0.07600
-0.01378
-0.01545
0.04747
-0.01344
-0.01498
0.04876
-0.01513
0.04830
-0.01483
0.04833
0.05761
0.05492
0.07493
0.07806
0.05375
0.05769
0.07905
0.07516
-0.01614
-0.01711
0.05152
-0.01834
0.04546
-0.01780
-0.01859
0.04930
-0.01996
0.04950
0.05563
0.05718
0.07793
0.07624
0.05701
0.05569
0.07682
0.07805
-0.01497
-0.01638
0.04917
-0.01629
0.05025
-0.01512
-0.01656
0.05068
-0.01640
0.04878
0.05633
0.05548
0.07637
0.07759
0.05573
0.05646
0.07716
0.07670
-0.01449
-0.01604
0.04925
-0.01456
-0.01605
0.04890
-0.01578
0.04913
-0.01588
0.05000
0.05558
0.05649
0.07686
0.07612
0.05754
0.05531
0.07713
0.08003
-0.01607
-0.01666
0.04949
-0.01543
-0.01633
0.05048
-0.01830
0.04993
-0.01898
0.04634
0.05639
0.05602
0.07655
0.07685
0.05473
0.05677
0.07750
0.07565
-0.01682
-0.01806
0.05006
-0.01812
0.04754
-0.01700
-0.01772
0.05018
-0.01970
0.04816
0.05733
0.05598
0.07663
0.07810
0.05594
0.05708
0.07811
0.07701
-0.01550
-0.01703
0.05076
-0.01671
0.04909
-0.01536
-0.01686
0.04947
-0.01660
0.05031
0.05669
0.05512
0.07645
0.07766
0.05421
0.05661
0.07755
0.07447
-0.01461
-0.01627
0.04994
-0.01554
0.04817
-0.01446
-0.01611
0.04803
-0.01539
0.04999
0.05642
0.05606
0.07689
0.07742
0.05595
0.05632
0.07719
0.07704
-0.01423
-0.01573
0.04967
-0.01555
0.04914
-0.01435
-0.01581
0.04948
-0.01570
0.04972
0.05644
0.05647
0.07744
0.07729
0.05649
0.05655
0.07750
0.07742
-0.01465
-0.01607
0.04983
-0.01464
-0.01601
0.04976
-0.01602
0.04980
-0.01606
0.04986
0.05624
0.05641
0.07750
0.07715
0.05634
0.05654
0.07757
0.07703
-0.01548
-0.01665
0.04970
-0.01482
-0.01609
0.04961
-0.01712
0.04983
-0.01636
0.04985
0.04878
0.06608
0.08509
0.06902
0.05160
0.08953
0.08342
0.05378
-0.02461
-0.01672
0.05299
-0.01757
0.05013
-0.00028
-0.00870
0.05519
-0.05587
0.01716
0.06626
0.05201
0.07389
0.08622
0.07027
0.06380
0.07878
0.08255
-0.00272
-0.01585
0.05342
-0.02369
-0.02037
0.05122
-0.03157
0.02626
-0.02262
0.05657
0.05806
0.05180
0.07323
0.08080
0.05337
0.05814
0.07831
0.07370
-0.01463
-0.01607
0.05046
-0.01602
0.04720
-0.01460
-0.01670
0.04390
-0.01602
0.05279
0.10302
-0.09946
-0.06912
-0.03143
0.16835
-0.05866
-0.12627
0.12571
-0.01235
-0.13802
-0.06733
0.07415
0.04635
0.06116
0.08239
0.06753
0.05830
0.04802
0.06892
0.07991
-0.00746
-0.00949
0.03947
-0.00940
0.05085
-0.01174
-0.01354
0.05358
-0.01310
0.04208
0.05005
0.05758
0.07869
0.06988
0.05671
0.05091
0.07248
0.07783
-0.01136
-0.01220
0.04340
-0.01361
0.05034
-0.01164
-0.01232
0.05075
-0.01379
0.04364
0.05643
0.05655
0.07745
0.07731
0.05652
0.05636
0.07733
0.07748
-0.01450
-0.01596
0.04980
-0.01584
0.04980
-0.01452
-0.01597
0.04988
-0.01587
0.04964
0.05571
0.05650
0.07746
0.07678
0.05625
0.05492
0.07563
0.07724
-0.01376
-0.01544
0.04891
-0.01479
0.04966
-0.01385
-0.01552
0.04989
-0.01490
0.04845
0.05607
0.05641
0.07734
0.07698
0.05618
0.05559
0.07662
0.07712
-0.01416
-0.01561
0.04944
-0.01550
0.04960
-0.01411
-0.01560
0.04986
-0.01540
0.04879
0.05735
0.05771
0.07930
0.07794
0.05770
0.05705
0.07805
0.07791
-0.01896
-0.02077
0.05080
-0.01991
0.05182
-0.01691
-0.01855
0.05050
-0.01803
0.05020
-0.01383
-0.01889
-0.01274
-0.02209
0.08193
0.08375
-0.01919
-0.02094
0.09068
-0.01653
-0.01118
0.07998
-0.01697
-0.02423
0.09518
-0.01651
-0.01821
-0.01604
-0.01767
0.08556
0.08411
-0.01757
-0.01684
0.08545
-0.01690
-0.01730
0.08568
-0.01755
-0.01726
0.08618
-0.01698
-0.01874
-0.01656
-0.01810
0.08588
0.08249
-0.01805
-0.01754
0.08611
-0.01712
-0.01929
-0.01645
-0.01772
0.08561
0.08422
-0.01650
-0.01899
-0.01616
-0.01829
0.08446
0.08463
-0.01739
-0.01741
-0.01737
-0.01814
0.08484
0.08620
-0.01741
-0.01859
0.08458
-0.01694
-0.01756
-0.01702
-0.01706
0.08518
0.08512
-0.01742
-0.01763
0.08595
-0.01710
-0.01729
0.08578
-0.01716
-0.01718
0.08554
-0.02025
-0.01604
-0.02158
-0.01643
0.08580
0.09061
-0.01579
-0.01749
0.08214
-0.00945
-0.01555
0.07724
-0.02172
-0.01833
0.09173
-0.01830
-0.02101
0.02088
-0.07624
0.08943
0.02480
-0.02229
-0.01863
0.08586
-0.02308
-0.01363
0.08702
0.04188
-0.10932
-0.00675
0.00607
-0.05729
-0.02322
-0.01320
0.03259
0.09156
0.00274
-0.06230
-0.02127
-0.01359
0.06152
0.08846
-0.01533
-0.01281
0.07729
-0.01673
-0.01739
-0.01692
-0.01724
0.08532
0.08569
-0.01747
-0.01772
0.08646
-0.01763
-0.01670
0.08544
-0.01688
-0.01724
0.08553
-0.01708
-0.01700
-0.01733
-0.01684
0.08571
0.08586
-0.01719
-0.01704
-0.01726
-0.01686
0.08584
0.08573
-0.01691
-0.01688
0.08524
-0.01954
-0.01897
-0.01844
-0.01172
0.08963
0.07838
-0.01784
-0.01554
0.08386
-0.01464
-0.02225
0.08816
-0.01569
-0.01993
0.08586
-0.01856
-0.01735
-0.01770
-0.01665
0.08619
0.08513
-0.01734
-0.01564
0.08142
-0.01575
-0.02063
0.08633
-0.01650
-0.01895
0.08573
0.04599
0.04807
0.04941
0.04682
0.04571
0.05182
0.05078
0.04302
0.05079
0.09881
-0.02021
-0.02254
0.06025
0.04843
0.03936
0.04811
0.04891
0.04807
0.04852
0.04847
0.04857
0.04912
0.04849
0.04756
0.04741
0.04614
0.04869
0.04728
0.04764
0.04951
0.04813
0.04749
0.04853
0.04891
0.04775
0.04832
0.04534
0.04967
0.05001
0.04869
0.04635
0.04870
0.04851
0.04831
0.04861
0.04859
0.04843
0.04825
0.07865
0.01132
0.01218
0.05336
0.04967
0.04213
0.04167
0.05142
0.04952
0.04738
0.04876
0.04884
-0.10323
0.01013
0.08324
0.02717
-0.00817
-0.01638
-0.16370
0.07663
-0.02872
0.01977
0.03795
-0.07993
-0.11524
0.06782
-0.11413
-0.10451
0.09894
-0.14362
0.05236
-0.07444
0.23001
-0.10765
0.15361
0.03980
0.35973
0.31185
0.15606
0.08224
0.01302
-0.13961
0.09462
-0.04622
0.04321
-0.07484
0.28025
-0.11525
0.02323
0.01709
-0.05549
0.03478
-0.09801
-0.20255
-0.08632
0.13469
-0.01997
0.05020
-0.04734
0.08900
0.11835
0.05975
-0.06104
-0.13418
-0.06913
0.07707
-0.05863
-0.04113
-0.00582
-0.07089
-0.01472
0.08343
-0.04974
-0.14155
-0.09487
0.12062
-0.13058
0.03719
-0.08026
0.04091
0.09591
-0.00906
0.15092
0.10034
-0.00169
-0.01904
0.05948
-0.08292
0.16249
0.14519
0.02229
-0.06794
0.07162
-0.01960
0.02617
0.00843
-0.03890
0.02147
-0.10143
-0.08005
-0.03962
-0.17305
0.06492
-0.11673
-0.03084
0.01086
0.09962
-0.05871
0.03447
0.27282
0.03654
0.02049
-0.13045
0.18985
-0.11026
0.02716
0.00530
0.11063
0.17973
0.00007
0.21037
0.16036
-0.09156
-0.14984
0.13489
-0.05396
-0.05134
-0.07646
0.02694
0.26495
0.14146
0.11418
0.10130
0.04327
-0.01002
0.12465
-0.01446
0.09148
-0.09496
0.23264
-0.09307
0.11583
0.11228
-0.17200
0.02689
0.00155
-0.11711
0.03075
0.14033
-0.04541
0.04703
-0.04547
-0.01604
-0.07609
-0.03907
-0.12481
0.13984
-0.07796
-0.03683
0.07315
-0.04125
-0.01157
0.04899
-0.01751
-0.04041
0.02193
0.04104
0.21071
-0.04260
-0.07912
0.07877
0.00220
-0.17144
-0.20626
0.15846
0.30250
0.05606
0.01969
0.16544
0.03735
-0.04282
0.16171
0.01307
-0.01194
0.00459
0.09045
-0.03807
0.17386
0.00707
0.05232
0.08632
-0.04075
-0.05209
-0.01677
0.08104
-0.07708
0.04338
-0.04641
0.03093
-0.11178
0.30564
0.11638
-0.03982
-0.06463
-0.16706
0.14330
-0.12236
0.22764
-0.15609
0.14540
0.27405
0.08588
0.33028
0.33720
-0.12311
0.05812
-0.00044
0.00103
0.01299
-0.05476
0.00234
-0.21549
-0.12634
-0.03535
-0.10617
-0.10071
0.05461
0.03408
-0.12015
0.23291
0.01941
0.15579
0.12375
0.40526
-0.00992
-0.21618
0.12476
-0.02955
0.26447
0.09563
0.03392
-0.23984
0.09507
-0.04914
0.04757
-0.08059
0.08313
0.11243
-0.14614
0.17855
0.25292
0.50653
-0.01215
0.04674
0.10642
0.11550
0.04205
-0.07511
0.25244
-0.02702
0.00890
0.22975
0.04308
-0.06746
0.04701
0.04322
-0.18161
0.15150
0.13488
0.07483
-0.02694
0.12636
0.17188
-0.00403
-0.01158
0.14456
-0.06813
0.10954
0.06344
-0.15208
-0.08142
0.21775
0.09095
-0.09744
-0.14605
-0.05370
-0.07050
0.03282
0.13548
0.02300
-0.06312
-0.06811
0.10131
-0.00007
-0.00506
0.04256
-0.06436
-0.12546
0.30969
-0.05659
-0.08549
-0.12528
-0.03261
-0.16168
0.12063
-0.06107
0.08616
-0.07586
0.03375
-0.00948
0.09693
-0.23652
0.05405
-0.09763
0.20721
-0.04456
-0.08906
0.06410
-0.12511
-0.05496
-0.10818
-0.00409
-0.09058
-0.07725
0.13146
0.01677
-0.04183
0.27936
-0.08929
-0.01339
-0.19063
-0.11477
-0.20458
-0.06336
-0.07672
0.03478
0.12688
0.10720
-0.06494
-0.10102
-0.01896
-0.13571
0.04496
-0.20759
-0.08675
-0.08198
-0.17704
-0.05158
-0.13694
0.03673
-0.10804
0.07274
-0.01878
-0.06913
-0.12229
-0.01285
-0.15739
-0.09431
-0.19863
-0.12028
-0.17101
-0.09140
0.10000
