# vtk DataFile Version 3.0
Point representing Sub_cellular elem model
ASCII

DATASET UNSTRUCTURED_GRID
POINTS 765 float
0.01265 1.71028 0.53821 
0.00663 1.72581 -1.62108 
1.75175 1.06167 -0.55353 
1.75317 -1.09168 -0.55533 
0.00873 -1.75624 -1.62608 
0.01781 -1.74650 0.53002 
1.09770 -0.01713 1.19488 
-1.05385 -0.01492 1.22269 
1.08316 -0.01356 -2.29262 
-1.06982 -0.01446 -2.28777 
-1.72519 1.05533 -0.53779 
-1.72556 -1.09113 -0.54366 
0.00870 2.02998 -0.54145 
1.03466 1.63919 0.08595 
0.64808 1.00078 1.11991 
-0.60843 0.99797 1.15273 
-1.00831 1.63197 0.09966 
1.03362 1.64562 -1.18285 
0.64050 1.01285 -2.20937 
-0.62811 1.01193 -2.20602 
-1.01683 1.64168 -1.17456 
2.06519 -0.01497 -0.55686 
1.67448 0.61680 0.46907 
1.66918 0.62095 -1.57936 
1.03606 -1.67527 -1.18661 
1.03845 -1.67215 0.08330 
1.67532 -0.65092 0.46941 
1.66983 -0.64875 -1.58058 
0.01272 -2.06455 -0.54830 
0.64150 -1.04056 -2.21157 
-0.62731 -1.04098 -2.20894 
-1.01555 -1.67540 -1.18121 
0.64816 -1.03395 1.12325 
-0.61002 -1.03298 1.12764 
-1.00619 -1.67044 0.08907 
-0.01250 0.61092 1.99863 
-1.63362 0.61284 0.49107 
-1.63424 -0.64798 0.48382 
0.00603 -0.01372 -2.60103 
-1.65187 0.61829 -1.56876 
-1.65182 -0.64983 -1.57136 
-2.03589 -0.01730 -0.54079 
0.01046 1.94366 0.03131 
0.53282 1.74423 0.35131 
0.33563 1.41745 0.88022 
-0.30572 1.41605 0.88939 
-0.50798 1.74028 0.35957 
0.00744 1.95321 -1.11451 
0.53023 1.75617 -1.44127 
0.32973 1.43391 -1.96539 
-0.31723 1.43319 -1.96343 
-0.51601 1.75431 -1.43741 
1.45729 1.40153 -0.22806 
1.45654 1.40377 -0.87464 
1.98327 0.55702 -0.55572 
1.78333 0.87895 -0.03168 
1.78116 0.88133 -1.07703 
1.98388 -0.58692 -0.55660 
1.45856 -1.43336 -0.87740 
1.45970 -1.43284 -0.23024 
1.78452 -0.91072 -0.03257 
1.78216 -0.91003 -1.07869 
0.53267 -1.78617 -1.44587 
0.01041 -1.98558 -1.12064 
0.33134 -1.46265 -1.96898 
-0.31581 -1.46283 -1.96758 
-0.51407 -1.78634 -1.44336 
0.53783 -1.77912 0.34661 
0.01540 -1.97985 0.02404 
0.34021 -1.45270 0.87424 
-0.30193 -1.45198 0.87540 
-0.50370 -1.77805 0.34903 
0.91921 0.50515 1.22384 
1.43652 0.30514 0.89064 
1.43740 -0.34061 0.89127 
0.92108 -0.54249 1.22550 
0.59191 -0.01907 1.46221 
-0.87377 0.50776 1.26424 
-0.87658 -0.53806 1.24501 
-0.55876 -0.01775 1.50148 
-1.39128 0.30564 0.91665 
-1.39193 -0.33730 0.90981 
0.90135 0.51011 -2.32163 
1.42596 0.31012 -2.00015 
1.42627 -0.33741 -2.00076 
0.90182 -0.53733 -2.32265 
0.57760 -0.01357 -2.52116 
-0.88868 0.50920 -2.31738 
-0.88835 -0.53800 -2.31889 
-0.56527 -0.01402 -2.51884 
-1.41132 0.30857 -1.99267 
-1.41120 -0.33853 -1.99379 
-1.42983 1.39387 -0.21245 
-1.43538 1.39813 -0.86204 
-1.74956 0.87247 -0.01313 
-1.75964 0.87693 -1.06336 
-1.95469 0.55224 -0.53906 
-1.43507 -1.43319 -0.86876 
-1.42954 -1.43137 -0.22091 
-1.75019 -0.90906 -0.01948 
-1.75985 -0.91056 -1.06763 
-1.95517 -0.58726 -0.54231 
0.56448 1.92855 -0.23883 
-0.54419 1.92443 -0.23238 
0.56373 1.93293 -0.85074 
-0.54697 1.92987 -0.84563 
0.90995 1.36988 0.65783 
1.05859 1.74467 -0.54814 
1.40518 1.18667 0.34713 
0.01615 1.02186 1.24625 
1.21968 0.87996 0.84051 
0.32648 0.53033 1.45120 
-0.87733 1.36430 0.67765 
-0.28231 0.52590 1.50846 
-1.17832 0.87668 0.86914 
-1.03763 1.73858 -0.53753 
-1.37050 1.17943 0.36747 
0.90706 1.38092 -1.75478 
1.40257 1.19232 -1.45149 
0.00594 1.03701 -2.30934 
1.21294 0.88703 -1.94549 
0.31150 0.54292 -2.49961 
-0.89313 1.37879 -1.74892 
-0.29961 0.54263 -2.49826 
-1.19884 0.88516 -1.93853 
-1.38570 1.18886 -1.44158 
1.96486 0.28972 -0.00109 
1.96169 0.29166 -1.11164 
1.96517 -0.32180 -0.00132 
1.96199 -0.32015 -1.11219 
1.77815 -0.01717 0.49196 
1.77139 -0.01383 -1.60495 
1.06188 -1.77592 -0.55187 
1.40401 -1.22070 -1.45394 
0.56721 -1.96473 -0.85594 
0.90872 -1.40935 -1.75789 
1.40729 -1.22003 0.34673 
0.56898 -1.96219 -0.24395 
0.91309 -1.40404 0.65748 
1.22095 -0.91550 0.84232 
1.21386 -0.91464 -1.94729 
-0.54428 -1.96462 -0.85307 
-0.54059 -1.96160 -0.24105 
0.00689 -1.06517 -2.31187 
0.31197 -0.57033 -2.50077 
-0.89208 -1.40980 -1.75367 
-0.29918 -0.57055 -2.49960 
-1.19838 -0.91541 -1.94161 
-1.03595 -1.77528 -0.54592 
-1.38529 -1.22124 -1.44647 
0.01972 -1.05780 1.23241 
0.32194 -0.55386 1.45927 
-0.87565 -1.40167 0.66201 
-0.28709 -0.56447 1.46855 
-1.17917 -0.91119 0.85294 
-1.37045 -1.21695 0.35626 
-1.73535 -0.01693 0.51108 
-1.92835 0.28648 0.01736 
-1.92872 -0.32183 0.01510 
-1.75361 -0.01564 -1.59457 
-1.93931 0.28866 -1.09780 
-1.93946 -0.32170 -1.09928 
0.01149 1.84309 0.29574 
0.27181 1.74361 0.45548 
0.17383 1.58077 0.71909 
-0.14634 1.57989 0.72255 
-0.24702 1.74175 0.45982 
0.00699 1.85624 -1.37901 
0.26761 1.75781 -1.54179 
0.16763 1.59731 -1.80318 
-0.15486 1.59686 -1.80215 
-0.25404 1.75692 -1.53996 
1.62190 1.24176 -0.39140 
1.62141 1.24269 -0.71366 
1.88409 0.82067 -0.55471 
1.78435 0.98106 -0.29329 
1.78334 0.98234 -0.81456 
1.88507 -0.85058 -0.55603 
1.62313 -1.27244 -0.71593 
1.62376 -1.27237 -0.39342 
1.78568 -1.01185 -0.29471 
1.78454 -1.01164 -0.81633 
0.26991 -1.78802 -1.54666 
0.00948 -1.88758 -1.38461 
0.16951 -1.62681 -1.80750 
-0.15308 -1.62689 -1.80678 
-0.25196 -1.78812 -1.54544 
0.27703 -1.77931 0.44911 
0.01669 -1.87950 0.28814 
0.17879 -1.61646 0.71156 
-0.14164 -1.61605 0.71219 
-0.24210 -1.77872 0.45027 
1.02396 0.24227 1.22421 
1.27864 0.14243 1.05747 
1.28032 -0.17694 1.05716 
1.02896 -0.27735 1.22282 
0.85801 -0.01711 1.33869 
-0.97912 0.24502 1.25926 
-0.97998 -0.27498 1.24987 
-0.81711 -0.01527 1.37131 
-1.23309 0.14470 1.08498 
-1.23350 -0.17489 1.08054 
1.00293 0.24752 -2.32398 
1.26444 0.14780 -2.16368 
1.26458 -0.17496 -2.16398 
1.00316 -0.27465 -2.32447 
0.84149 -0.01355 -2.42340 
-0.98997 0.24662 -2.31940 
-0.98982 -0.27543 -2.32017 
-0.82876 -0.01423 -2.41985 
-1.25057 0.14662 -2.15759 
-1.25050 -0.17600 -2.15811 
-1.59463 1.23468 -0.37563 
-1.59758 1.23660 -0.69926 
-1.75432 0.97436 -0.27624 
-1.75934 0.97692 -0.79967 
-1.85640 0.81490 -0.53830 
-1.59769 -1.27207 -0.70569 
-1.59482 -1.27134 -0.38276 
-1.75484 -1.01079 -0.28227 
-1.75966 -1.01166 -0.80476 
-1.85691 -0.85032 -0.54298 
0.00952 2.00690 -0.25054 
0.00801 2.01192 -0.83246 
0.29304 2.00412 -0.39434 
-0.27455 2.00207 -0.39123 
0.29250 2.00652 -0.69172 
-0.27560 2.00474 -0.68895 
0.78981 1.70938 0.22691 
1.25957 1.53555 -0.06730 
0.81344 1.80588 -0.07607 
0.99017 1.51998 0.38243 
1.05354 1.71684 -0.22638 
1.23061 1.43118 0.23177 
0.49549 1.22268 1.01511 
0.79237 0.76194 1.18811 
0.79370 1.19583 0.90550 
0.33785 1.01888 1.20643 
0.94498 0.95943 0.99332 
0.48781 0.78055 1.29961 
-0.46191 1.22067 1.03417 
-0.74819 0.76139 1.22898 
-0.30234 1.01756 1.22818 
-0.75768 1.19189 0.93064 
-0.44415 0.77737 1.34336 
-0.90409 0.95677 1.02547 
-0.76436 1.70349 0.23838 
-1.23246 1.52776 -0.05230 
-0.79054 1.79994 -0.06610 
-0.96077 1.51318 0.39862 
-1.03003 1.70993 -0.21442 
-1.20016 1.42347 0.24915 
0.78826 1.71855 -1.32047 
1.25871 1.53960 -1.03269 
0.81259 1.81164 -1.01715 
1.05306 1.72018 -0.87008 
0.98841 1.52904 -1.47970 
1.22904 1.43749 -1.33246 
0.48904 1.23718 -2.10232 
0.77937 0.76794 -2.28322 
0.78895 1.20793 -2.00045 
0.32779 1.03190 -2.28417 
0.93745 0.96801 -2.09300 
0.47622 0.79193 -2.37661 
-0.47666 1.23631 -2.09960 
-0.76689 0.76701 -2.27936 
-0.31578 1.03145 -2.28252 
-0.77594 1.20649 -1.99586 
-0.46418 0.79139 -2.37435 
-0.92438 0.96661 -2.08788 
-0.77299 1.71565 -1.31442 
-1.23993 1.53471 -1.02217 
-0.79581 1.80788 -1.01019 
-1.03434 1.71515 -0.86065 
-0.97321 1.52607 -1.47257 
-1.21224 1.43370 -1.32322 
2.04447 0.27560 -0.55646 
2.04476 -0.30552 -0.55690 
2.04014 0.13308 -0.27251 
2.03848 0.13404 -0.84085 
2.04028 -0.16403 -0.27269 
2.03862 -0.16314 -0.84110 
1.74643 0.75632 0.22510 
1.56999 0.46483 0.69299 
1.55546 0.91274 0.42592 
1.46534 0.76372 0.66517 
1.84195 0.45369 0.24779 
1.75153 0.30466 0.48699 
1.74287 0.75968 -1.33468 
1.56242 0.46951 -1.80350 
1.55149 0.91757 -1.53357 
1.45930 0.76923 -1.77340 
1.83754 0.45664 -1.35957 
1.74518 0.30825 -1.59922 
1.26098 -1.56917 -1.03596 
0.79075 -1.74836 -1.32468 
1.05593 -1.75060 -0.87394 
1.23096 -1.46640 -1.33555 
0.81557 -1.84226 -1.02160 
0.99044 -1.55802 -1.48318 
1.26264 -1.56764 -0.06963 
0.79430 -1.74329 0.22349 
1.05717 -1.74896 -0.22972 
1.23360 -1.46420 0.23037 
0.81775 -1.83908 -0.08003 
0.99384 -1.55366 0.38078 
1.74745 -0.78926 0.22483 
1.57074 -0.49991 0.69372 
1.84248 -0.48685 0.24773 
1.75190 -0.33892 0.48726 
1.55685 -0.94654 0.42609 
1.46650 -0.79868 0.66614 
1.74369 -0.78788 -1.33614 
1.56290 -0.49701 -1.80442 
1.83801 -0.48470 -1.36044 
1.74549 -0.33594 -1.59983 
1.55251 -0.94559 -1.53540 
1.46011 -0.79689 -1.77493 
0.01150 -2.04540 -0.83901 
0.01405 -2.04243 -0.25760 
0.29636 -2.03967 -0.69773 
0.29743 -2.03825 -0.40044 
-0.27217 -2.03956 -0.69628 
-0.27062 -2.03802 -0.39899 
0.49035 -1.26532 -2.10520 
0.78010 -0.79535 -2.28480 
0.79026 -1.23594 -2.00312 
0.93844 -0.99564 -2.09502 
0.32878 -1.05978 -2.28653 
0.47694 -0.81945 -2.37831 
-0.47556 -1.26563 -2.10317 
-0.76634 -0.79589 -2.28159 
-0.31489 -1.06000 -2.28524 
-0.77500 -1.23642 -1.99968 
-0.46356 -0.81978 -2.37645 
-0.92373 -0.99624 -2.09094 
-0.77132 -1.74854 -1.32079 
-1.23913 -1.56917 -1.02896 
-0.79387 -1.84223 -1.01740 
-0.97206 -1.55836 -1.47829 
-1.03289 -1.75039 -0.86819 
-1.21147 -1.46672 -1.32907 
0.49895 -1.25733 1.01262 
0.79278 -0.79892 1.19123 
0.79571 -1.22996 0.90674 
0.94602 -0.99510 0.99578 
0.34097 -1.05344 1.20302 
0.48474 -0.81098 1.30589 
-0.46038 -1.25663 1.01458 
-0.75118 -0.79368 1.20394 
-0.30261 -1.05425 1.20486 
-0.75715 -1.22790 0.91079 
-0.44870 -0.81279 1.31198 
-0.90526 -0.99098 1.00433 
-0.76109 -1.74183 0.22746 
-1.23139 -1.56592 -0.06198 
-0.78753 -1.83800 -0.07572 
-1.02810 -1.74780 -0.22373 
-0.95866 -1.55148 0.38603 
-1.19912 -1.46176 0.23786 
0.01543 -0.52540 1.72613 
-0.21223 -0.53975 2.01681 
0.43312 0.07266 1.69017 
0.43195 -0.45599 2.32612 
-0.42023 -0.29200 1.76307 
-0.53749 -0.15126 1.98205 
-1.52645 0.46302 0.71700 
-1.70894 0.75075 0.24528 
-1.42385 0.75981 0.69020 
-1.51716 0.90684 0.44788 
-1.70919 0.30281 0.50792 
[...]
CELL_DATA 2287
SCALARS Strain double 
LOOKUP_TABLE default 
-0.08215
-0.09006
-0.08792
-0.08314
-0.09340
-0.08708
-0.08819
-0.08716
-0.08781
-0.08776
-0.08726
-0.08836
-0.08715
-0.08904
-0.08819
-0.08755
-0.08851
-0.08709
-0.08864
-0.08766
-0.08754
-0.08738
-0.08765
-0.08733
-0.08786
-0.09186
-0.08355
-0.08603
-0.08699
-0.09107
-0.09938
-0.07824
-0.07358
-0.10163
-0.07198
-0.09387
-0.09790
-0.07197
-0.08129
-0.07233
-0.08724
-0.08761
-0.08766
-0.08722
-0.08770
-0.08749
-0.08742
-0.08743
-0.08735
-0.08742
-0.08771
-0.08947
-0.08584
-0.08536
-0.09060
-0.08869
-0.08800
-0.08693
-0.08684
-0.08928
-0.03113
-0.03197
0.06633
0.06850
0.06901
0.06667
-0.03348
-0.03312
0.06538
0.07116
0.07034
0.06517
-0.04060
-0.04629
0.07696
0.07095
0.08035
0.08337
-0.03137
-0.05323
0.04868
0.09716
0.11107
0.07741
-0.03847
-0.03666
0.06614
0.07964
0.07683
0.06356
-0.03512
-0.03517
0.07007
0.06947
0.06940
0.07013
-0.03363
-0.03364
0.06937
0.06938
0.06932
0.06945
-0.03425
-0.03420
0.06956
0.07003
0.06990
0.06958
-0.03492
-0.03524
0.06805
0.07192
0.07111
0.06831
-0.03287
-0.03298
0.06759
0.06845
0.06860
0.06788
-0.03682
-0.03688
0.06864
0.06953
0.06872
0.06911
-0.03462
-0.03452
0.07033
0.06906
0.06890
0.07044
-0.03464
-0.03443
0.06982
0.06964
0.06929
0.06956
-0.03448
-0.03591
0.07188
0.06529
0.06685
0.07337
-0.03686
-0.03742
0.07072
0.06827
0.06706
0.07142
-0.03456
-0.03453
0.06890
0.07041
0.07026
0.06913
-0.03274
-0.03206
0.06758
0.06869
0.06908
0.06698
-0.03385
-0.03377
0.06943
0.06951
0.06958
0.06951
-0.03386
-0.03388
0.06961
0.06964
0.06968
0.06958
-0.03500
-0.03517
0.06969
0.06990
0.07021
0.06962
-0.03547
-0.05640
0.08638
0.08337
0.05568
0.10003
-0.03095
-0.04342
0.05467
0.08432
0.09353
0.07141
-0.03590
-0.03516
0.06575
0.07229
0.07374
0.06504
0.03263
0.07389
0.06085
0.23835
0.11706
-0.03220
-0.03145
0.07712
0.05963
0.06093
0.07588
-0.02998
-0.03109
0.06825
0.06470
0.06441
0.06855
-0.03410
-0.03405
0.06972
0.06975
0.06971
0.06974
-0.03334
-0.03302
0.06932
0.06866
0.06886
0.06923
-0.03378
-0.03367
0.06941
0.06929
0.06926
0.06941
-0.03699
-0.03670
0.07154
0.06950
0.06949
0.07061
-0.06070
-0.04100
0.07513
0.07869
0.03298
0.02955
-0.06696
-0.04504
0.07480
0.08641
0.03813
0.02851
-0.06792
-0.05110
0.08951
0.07280
0.03411
0.04701
-0.06045
-0.04047
0.06857
0.09020
0.04307
0.02396
-0.07187
-0.05062
0.07865
0.08907
0.04144
0.03274
-0.06470
-0.04349
0.07982
0.07841
0.03247
0.03364
-0.06642
-0.04588
0.08017
0.07991
0.03452
0.03464
-0.06514
-0.04446
0.07973
0.07953
0.03380
0.03403
-0.06584
-0.04514
0.07962
0.08044
0.03462
0.03402
-0.06595
-0.04549
0.07878
0.08075
0.03553
0.03344
-0.06504
-0.04410
0.07885
0.07830
0.03206
0.03290
-0.06658
-0.04599
0.07908
0.08048
0.03480
0.03364
-0.06478
-0.04381
0.07889
0.07840
0.03243
0.03302
-0.06759
-0.04734
0.07925
0.07943
0.03439
0.03436
-0.06625
-0.04554
0.08058
0.07875
0.03343
0.03510
-0.06519
-0.04411
0.07999
0.07818
0.03203
0.03370
-0.06651
-0.04568
0.07983
0.08018
0.03428
0.03402
-0.06509
-0.04467
0.08000
0.07754
0.03210
0.03436
-0.06716
-0.04705
0.08073
0.07805
0.03334
0.03547
-0.06587
-0.04534
0.07867
0.08040
0.03495
0.03345
-0.06564
-0.04510
0.07943
0.07998
0.03449
0.03408
-0.06516
-0.04411
0.07900
0.07993
0.03398
0.03293
-0.06557
-0.04479
0.07989
0.07988
0.03420
0.03424
-0.06535
-0.04468
0.07983
0.07982
0.03420
0.03408
-0.06611
-0.04565
0.08011
0.07992
0.03454
0.03447
-0.06965
-0.04800
0.07770
0.08543
0.03806
0.03140
-0.06199
-0.04211
0.07801
0.07609
0.03084
0.03250
-0.06483
-0.04629
0.08712
0.07155
0.02880
0.04203
-0.06536
-0.04558
0.07200
0.08700
0.04124
0.02917
-0.06870
-0.04733
0.07593
0.08558
0.03807
0.03034
-0.06049
-0.04173
0.08051
0.07239
0.02866
0.03578
-0.06544
-0.04709
0.07804
0.07686
0.03376
0.03349
-0.06697
-0.04823
0.07904
0.07751
0.03363
0.03474
-0.04961
-0.04126
0.08216
0.05485
0.02424
0.04029
-0.02598
-0.25607
0.13201
0.14797
0.02519
0.02536
-0.06003
-0.05311
0.06762
0.09480
0.05526
0.03662
-0.06138
-0.04492
0.07944
0.07968
0.03883
0.03785
-0.03951
0.12144
0.12212
0.02562
0.02555
-0.06531
-0.04408
0.09092
0.07234
0.02624
0.04346
-0.05730
-0.03927
0.07745
0.07389
0.03058
0.03230
-0.06519
-0.04450
0.07959
0.07987
0.03404
0.03400
-0.06577
-0.04523
0.07952
0.08050
0.03478
0.03379
-0.06583
-0.04528
0.08050
0.07960
0.03385
0.03476
-0.06520
-0.04455
0.07968
0.07984
0.03403
0.03408
-0.06569
-0.04498
0.08001
0.07998
0.03440
0.03441
-0.06558
-0.04497
0.08009
0.07996
0.03429
0.03454
-0.06543
-0.04474
0.08002
0.07994
0.03427
0.03435
-0.06547
-0.04484
0.08004
0.08001
0.03431
0.03435
-0.06526
-0.04442
0.07990
0.07973
0.03393
0.03419
-0.06542
-0.04470
0.07994
0.07984
0.03422
0.03431
-0.06608
-0.04620
0.08463
0.07398
0.03024
0.04008
-0.06742
-0.04644
0.08324
0.07807
0.03255
0.03641
-0.06312
-0.04211
0.07295
0.08311
0.03698
0.02770
-0.06369
-0.04346
0.07798
0.07916
0.03334
0.03241
-0.06893
-0.04811
0.08259
0.07958
0.03441
0.03610
-0.06684
-0.04613
0.08085
0.07925
0.03390
0.03485
-0.06613
-0.04563
0.08136
0.07663
0.03141
0.03619
-0.06429
-0.04283
0.07631
0.07981
0.03349
0.03041
-0.06492
-0.04438
0.07898
0.07944
0.03362
0.03322
-0.06770
-0.04728
0.08015
0.08001
0.03518
0.03457
0.06852
0.06819
0.01991
0.02306
0.01899
0.01733
0.07049
0.06985
0.01630
0.02607
0.02149
0.01374
0.07204
0.07240
0.01856
0.02113
0.01838
0.01522
0.06962
0.07011
0.01955
0.02254
0.02031
0.01594
0.07486
0.07657
0.01407
0.02235
0.02037
0.01015
0.07238
0.07211
0.01822
0.02109
0.01773
0.01509
0.06844
0.06983
0.01894
0.02146
0.01928
0.01537
0.07627
0.05919
0.03752
0.02597
0.01123
0.03955
0.07646
0.07379
0.01672
0.01875
0.01310
0.01469
0.10920
-0.09293
0.07843
0.02544
0.04170
0.02474
0.09130
0.08594
0.01329
0.01671
0.00702
0.01624
0.13409
-0.05517
0.07602
0.02560
0.07480
0.02555
0.08120
0.08074
0.02803
0.00961
0.00484
0.02639
0.07725
0.07565
0.01777
0.01842
0.01450
0.01541
0.06330
0.06180
0.02787
0.02287
0.01864
0.02599
0.07186
0.07185
0.02100
0.02004
0.01681
0.01785
0.07268
0.07275
0.02004
0.01986
0.01675
0.01693
0.07195
0.07201
0.02039
0.02087
0.01765
0.01728
0.07175
0.07167
0.02025
0.02107
0.01787
0.01699
0.07206
0.07215
0.02038
0.02076
0.01762
0.01727
0.07276
0.07310
0.02028
0.01987
0.01677
0.01698
0.07234
0.07229
0.02056
0.02058
0.01734
0.01733
0.07205
0.07195
0.02102
0.02012
0.01684
0.01807
0.07092
0.07101
0.02204
0.01980
0.01681
0.01840
0.07003
0.07035
0.01857
0.02118
0.01815
0.01538
0.07103
0.07120
0.01943
0.02159
0.01850
0.01644
0.07158
0.07233
0.01781
0.02048
0.01790
0.01417
0.07075
0.07110
0.01981
0.02149
0.01846
0.01661
0.07225
0.07189
0.01769
0.01919
0.01558
0.01401
0.07302
0.07301
0.01998
0.02001
0.01664
0.01669
0.07277
0.07343
0.02019
0.01888
0.01620
0.01634
0.07240
0.07260
0.02022
0.02000
0.01700
0.01699
0.07132
0.07073
0.02113
0.02003
0.01656
0.01847
0.07195
0.07191
0.02060
0.02043
0.01714
0.01760
0.06722
0.06792
0.02069
0.02213
0.01909
0.01720
0.07021
0.07076
0.02322
0.01791
0.01555
0.01916
0.07821
0.08200
0.01603
0.01711
0.01880
0.00815
0.07572
0.07824
0.01734
0.01635
0.01604
0.01057
0.07179
0.07191
0.02101
0.02024
0.01700
0.01773
0.07193
0.07214
0.01888
0.02123
0.01856
0.01538
0.06898
0.06859
0.01930
0.02323
0.01921
0.01656
0.07213
0.07213
0.02059
0.02060
0.01749
0.01744
0.07209
0.07217
0.02046
0.02074
0.01754
0.01734
0.07216
0.07223
0.02029
0.02073
0.01749
0.01701
0.07223
0.07225
0.02057
0.02065
0.01746
0.01737
0.07204
0.07198
0.02068
0.02056
0.01743
0.01755
0.07320
0.07387
0.02023
0.01800
0.01510
0.01687
0.07199
0.07187
0.02095
0.01998
0.01690
0.01763
0.07112
0.07414
0.02803
0.02713
0.02331
0.01997
0.13144
0.24118
0.10400
0.02503
0.07584
0.02526
0.08159
0.07839
0.01583
0.01657
0.01108
0.01557
0.11257
-0.12615
0.06172
0.02527
0.06825
0.02522
0.07228
0.07119
0.02528
0.01624
0.01161
0.02191
0.06710
0.06708
0.02332
0.01952
0.01613
0.02110
0.06515
0.06639
0.02701
0.01869
0.01627
0.02182
0.07677
0.07527
0.01478
0.02066
0.01702
0.01236
0.07144
0.07180
0.01649
0.02239
0.02034
0.01294
0.07156
0.07170
0.02050
0.02072
0.01774
0.01738
0.07176
0.07187
0.01893
0.02173
0.01807
0.01597
0.07209
0.07248
0.01944
0.02078
0.01748
0.01614
0.06645
0.07077
-0.00734
-0.01117
0.07894
-0.00046
-0.00985
0.06303
-0.00869
0.00318
0.07768
-0.00222
-0.01417
0.00074
-0.00427
0.07125
0.07021
-0.00685
-0.00605
0.07111
-0.00528
-0.00530
0.07067
-0.00625
-0.00590
0.07171
-0.00526
-0.00596
-0.00482
-0.00624
0.06992
0.07057
-0.00701
-0.00736
0.07164
-0.00516
-0.00642
0.07074
0.06971
-0.00753
-0.00657
-0.00549
-0.00541
-0.00660
-0.00495
0.07158
0.06967
-0.00751
-0.00594
0.07073
0.07145
-0.00539
-0.00593
0.06984
-0.00718
-0.00645
-0.00614
-0.00490
-0.00521
-0.00663
0.07065
0.07125
-0.00545
-0.00586
0.07127
-0.00577
-0.00645
0.07101
-0.00572
-0.00557
0.07106
-0.00576
-0.00593
-0.00547
-0.00544
0.06927
0.07607
-0.00153
-0.00676
0.06765
-0.00967
-0.00827
0.06384
-0.01143
-0.00165
0.07664
-0.00129
-0.01080
-0.00143
-0.00804
0.06361
0.09068
-0.01007
-0.02125
0.06034
-0.00469
-0.00549
0.05362
-0.01003
0.00127
0.10303
-0.01750
-0.04027
-0.03189
-0.03733
0.08375
0.07550
-0.01119
-0.00964
0.09474
0.06533
-0.01732
-0.00092
-0.01535
-0.02092
0.06117
-0.00761
0.00311
-0.00730
-0.00769
0.07083
0.07121
-0.00581
-0.00591
0.07159
-0.00525
-0.00599
0.07089
-0.00592
-0.00525
0.07117
-0.00585
-0.00587
-0.00546
-0.00545
0.07127
0.07119
-0.00560
-0.00543
0.07121
0.07122
-0.00561
-0.00556
-0.00562
-0.00556
0.07111
-0.00578
-0.00563
-0.00562
-0.00553
0.07452
0.06628
-0.00894
-0.00195
0.06901
-0.00695
-0.00330
0.07341
-0.00459
-0.01058
0.07062
-0.00701
-0.00820
-0.00486
-0.00355
0.07217
0.06997
-0.00622
-0.00494
0.06858
-0.00773
-0.00441
0.07140
-0.00620
-0.00854
0.07077
-0.00655
-0.00713
-0.00501
-0.00512
0.05549
0.05260
0.07323
0.07604
0.05393
0.05555
0.07702
0.07518
-0.01264
-0.01321
0.04940
-0.01152
-0.01184
0.04640
-0.01468
0.04699
-0.01382
0.04840
0.05861
0.05096
0.07238
0.08118
0.05316
0.05604
0.07691
0.07442
-0.01417
-0.01610
0.05100
-0.01290
-0.01482
0.04397
-0.01530
0.04659
-0.01474
0.04944
0.05860
0.06546
0.08532
0.07721
0.05110
0.07857
0.08251
0.06166
-0.02365
-0.02299
0.05529
-0.01528
-0.02181
0.05396
-0.01864
0.04812
-0.03536
0.04678
0.07253
0.04476
0.06343
0.09314
0.07982
0.07013
0.08071
0.09280
0.00191
-0.00438
0.05832
-0.02798
-0.01811
0.05127
-0.04819
0.01136
-0.02828
0.06456
0.06394
0.05237
0.07494
0.08758
0.05224
0.06443
0.08340
0.07093
-0.01815
-0.02053
0.05526
-0.01680
-0.02130
0.04166
-0.01838
0.04706
-0.01642
0.06020
0.05650
0.05686
0.07771
0.07727
0.05693
0.05600
0.07689
0.07790
-0.01613
-0.01743
0.05006
-0.01756
0.05014
-0.01532
-0.01666
0.05023
-0.01675
0.04936
0.05606
0.05622
0.07711
0.07706
0.05617
0.05617
0.07704
0.07723
-0.01409
-0.01549
0.04933
-0.01420
-0.01557
0.04962
-0.01548
0.04943
-0.01562
0.04957
0.05674
0.05629
0.07719
0.07782
0.05642
0.05676
0.07758
0.07737
-0.01463
-0.01608
0.05000
-0.01488
-0.01634
0.04957
-0.01597
0.04970
-0.01621
0.05028
0.05817
0.05536
0.07600
0.07849
0.05468
0.05825
0.08021
0.07577
-0.01591
-0.01693
0.05244
-0.01778
0.04754
-0.01526
-0.01644
0.04881
-0.01690
0.05097
0.05491
0.05489
0.07576
0.07594
0.05414
0.05555
0.07689
0.07552
-0.01357
-0.01494
0.04837
-0.01335
-0.01477
0.04845
-0.01526
0.04712
-0.01489
0.04880
0.05649
0.05631
0.07652
0.07668
0.05545
0.05539
0.07684
0.07604
-0.01752
-0.01844
0.05101
-0.01944
0.04738
-0.01734
-0.01848
0.05017
-0.01897
0.04742
0.05574
0.05729
0.07808
0.07643
0.05705
0.05583
0.07688
0.07806
-0.01500
-0.01647
0.04918
-0.01630
0.05032
-0.01520
-0.01673
0.05073
-0.01644
0.04901
0.05624
0.05627
0.07745
0.07749
0.05665
0.05632
0.07692
0.07736
-0.01524
-0.01693
0.04908
-0.01490
-0.01647
0.04947
-0.01639
0.05037
-0.01614
0.04989
0.05369
0.05798
0.07835
0.07392
0.05958
0.05261
0.07477
0.08223
-0.01597
-0.01641
0.04788
-0.01450
-0.01524
0.05194
-0.01836
0.05178
-0.01830
0.04332
0.05517
0.05809
0.07844
0.07496
0.05703
0.05455
0.07616
0.07829
-0.01812
-0.01894
0.04952
-0.01979
0.04945
-0.01707
-0.01751
0.05229
-0.02012
0.04531
0.05721
0.05579
0.07639
0.07795
0.05588
0.05701
0.07805
0.07696
-0.01514
-0.01655
0.05069
-0.01646
0.04899
-0.01498
-0.01636
0.04932
-0.01633
0.05022
0.05587
0.05448
0.07592
0.07716
0.05369
0.05536
0.07591
0.07400
-0.01297
-0.01498
0.04886
-0.01361
0.04775
-0.01295
-0.01494
0.04736
-0.01361
0.04911
0.05635
0.05633
0.07723
0.07734
0.05619
0.05631
0.07717
0.07723
-0.01427
-0.01578
0.04958
-0.01557
0.04946
-0.01434
-0.01582
0.04972
-0.01569
0.04970
0.05642
0.05632
0.07731
0.07731
0.05642
0.05649
0.07744
0.07735
-0.01440
-0.01580
0.04982
-0.01439
-0.01574
0.04958
-0.01580
0.04975
-0.01582
0.04982
0.05684
0.05657
0.07753
0.07748
0.05630
0.05685
0.07811
0.07708
-0.01608
-0.01725
0.05059
-0.01521
-0.01647
0.04981
-0.01768
0.04960
-0.01673
0.04998
0.05003
0.06440
0.08605
0.07092
0.05079
0.09199
0.08607
0.05049
-0.02818
-0.02020
0.05467
-0.02083
0.05074
-0.00377
-0.01449
0.04774
-0.05930
0.01848
0.06062
0.04816
0.07213
0.08444
0.06826
0.06301
0.07774
0.07979
0.00217
-0.01349
0.04171
-0.02175
-0.01799
0.04851
-0.03218
0.02357
-0.02035
0.05662
0.05963
0.05207
0.07325
0.08215
0.05290
0.05927
0.07932
0.07335
-0.01559
-0.01745
0.05192
-0.01658
0.04666
-0.01611
-0.01885
0.04422
-0.01701
0.05385
0.07135
-0.09581
-0.02866
-0.05380
0.10250
-0.05859
-0.09928
0.03754
-0.03281
-0.08754
-0.04346
0.20403
0.04638
0.06436
0.08730
0.06869
0.06134
0.04852
0.06858
0.08193
-0.00930
-0.01184
0.03824
-0.01067
0.05478
-0.01440
-0.01691
0.05542
-0.01506
0.04310
0.05165
0.05484
0.07561
0.07180
0.05536
0.05177
0.07291
0.07679
-0.01101
-0.01174
0.04454
-0.01321
0.04861
-0.01111
-0.01114
0.04844
-0.01359
0.04479
0.05655
0.05655
0.07745
0.07743
0.05650
0.05651
0.07747
0.07746
-0.01458
-0.01603
0.04991
-0.01593
0.04977
-0.01455
-0.01600
0.04989
-0.01591
0.04981
0.05582
0.05621
0.07723
0.07693
0.05585
0.05518
0.07591
0.07673
-0.01366
-0.01533
0.04900
-0.01469
0.04933
-0.01383
-0.01550
0.04954
-0.01485
0.04873
0.05627
0.05636
0.07729
0.07717
0.05601
0.05577
0.07675
0.07698
-0.01425
-0.01573
0.04964
-0.01553
0.04941
-0.01432
-0.01581
0.04980
-0.01560
0.04903
0.05628
0.05786
0.07978
0.07709
0.05779
0.05649
0.07740
0.07789
-0.01826
-0.02009
0.04942
-0.01931
0.05219
-0.01650
-0.01812
0.05051
-0.01770
0.04972
-0.01334
-0.01809
-0.01186
-0.02236
0.08119
0.08395
-0.01716
-0.02327
0.09153
-0.01663
-0.00665
0.07548
-0.01656
-0.02449
0.09883
-0.01636
-0.01849
-0.01575
-0.01781
0.08580
0.08392
-0.01779
-0.01671
0.08549
-0.01675
-0.01733
0.08546
-0.01760
-0.01748
0.08642
-0.01652
-0.01870
-0.01648
-0.01920
0.08521
0.08371
-0.01797
-0.01775
0.08631
-0.01639
-0.01935
-0.01614
-0.01803
0.08437
0.08450
-0.01698
-0.01951
-0.01635
-0.01765
0.08596
0.08431
-0.01843
-0.01708
-0.01785
-0.01748
0.08618
0.08608
-0.01626
-0.01819
0.08232
-0.01739
-0.01662
-0.01723
-0.01713
0.08479
0.08559
-0.01660
-0.01819
0.08575
-0.01711
-0.01701
0.08568
-0.01691
-0.01752
0.08568
-0.02047
-0.01393
-0.02115
-0.01968
0.08379
0.09261
-0.01392
-0.01921
0.08187
-0.01364
-0.01338
0.07783
-0.01997
-0.02073
0.09210
-0.01712
-0.02115
0.01400
-0.06544
0.08750
0.03692
-0.02057
-0.02053
0.08547
-0.02404
-0.01630
0.08977
0.04042
-0.10620
-0.01447
0.00620
-0.05441
-0.02439
-0.01575
0.04630
0.09813
0.00400
-0.05150
-0.01891
-0.01257
0.05367
0.08524
-0.01928
-0.01060
0.07920
-0.01669
-0.01739
-0.01685
-0.01729
0.08530
0.08569
-0.01749
-0.01755
0.08644
-0.01743
-0.01672
0.08541
-0.01687
-0.01725
0.08568
-0.01712
-0.01708
-0.01733
-0.01674
0.08585
0.08566
-0.01700
-0.01708
-0.01705
-0.01698
0.08580
0.08566
-0.01687
-0.01706
0.08542
-0.01875
-0.01959
-0.01661
-0.01252
0.08999
0.07738
-0.01835
-0.01540
0.08414
-0.01603
-0.02174
0.08927
-0.01557
-0.01954
0.08520
-0.01904
-0.01762
-0.01802
-0.01658
0.08698
0.08522
-0.01794
-0.01521
0.08138
-0.01568
-0.02023
0.08553
-0.01667
-0.01874
0.08563
0.04551
0.04861
0.04916
0.04660
0.04570
0.05242
0.04797
0.04421
0.05146
0.07284
0.01372
-0.00280
0.06148
0.05282
0.03746
0.04813
0.04901
0.04800
0.04837
0.04844
0.04869
0.04930
0.04821
0.04764
0.04575
0.04751
0.04887
0.04761
0.04747
0.04950
0.04970
0.04720
0.04719
0.04882
0.04817
0.04820
0.04222
0.05092
0.05198
0.04816
0.04572
0.04990
0.04848
0.04851
0.04860
0.04861
0.04824
0.04846
0.08807
-0.00592
-0.00262
0.05407
0.04750
0.04276
0.04288
0.05234
0.04772
0.04765
0.04835
0.04880
-0.11023
-0.06952
0.02255
0.04028
-0.05214
-0.01436
-0.08387
-0.03561
0.03675
-0.14211
0.03801
-0.08346
-0.09632
0.07420
-0.05752
-0.13474
-0.06608
-0.16879
0.33078
-0.12741
0.22981
-0.09743
0.02472
0.13512
0.29115
0.24149
0.20539
0.04341
0.06162
-0.16065
0.04374
0.57880
0.25903
-0.03179
0.22301
-0.17717
0.01493
0.06106
-0.10517
0.01916
-0.10331
-0.21201
-0.05700
0.17558
0.05704
0.31806
0.37751
0.04636
0.16770
0.04733
0.00749
-0.00909
-0.05115
-0.04743
-0.06006
-0.07454
-0.07866
-0.11263
0.03713
0.05103
-0.02509
-0.16901
-0.04564
0.15762
-0.17173
0.09366
-0.13911
0.05587
-0.06716
-0.03097
0.04267
0.09035
0.00279
0.11941
0.07150
-0.04781
0.00587
0.09919
-0.00592
-0.01952
0.03904
-0.00559
0.01975
-0.02769
-0.05362
-0.01183
-0.04296
-0.06565
0.02680
-0.09930
-0.04716
-0.08583
-0.12684
0.01054
0.17580
-0.08639
0.09681
0.15412
0.04934
0.01161
-0.11861
0.23975
-0.21162
-0.06763
0.02016
0.01518
0.11664
-0.06062
0.27541
0.07372
-0.03442
-0.00054
0.01209
0.04390
-0.01212
0.02986
0.05098
0.14164
0.02090
-0.00312
0.02128
0.00816
-0.00410
0.20743
0.06123
0.05833
0.02959
0.15249
-0.19649
0.00826
0.16844
-0.17325
0.12404
-0.07902
-0.21575
0.04183
-0.07290
-0.02541
0.00998
0.02160
0.05016
-0.05097
-0.05167
-0.10619
0.17696
-0.09972
0.09345
-0.06690
-0.03144
0.05551
0.04206
-0.00478
-0.03195
-0.05458
0.02081
0.10844
-0.03315
-0.07345
0.01733
0.11542
-0.06859
-0.19740
0.15392
0.27211
0.14633
-0.07044
0.19038
0.05995
-0.06877
0.25787
0.05162
0.06161
-0.02588
0.27703
0.04769
-0.02422
0.24889
0.13771
0.02967
-0.11985
-0.02416
0.03950
0.04287
0.13420
0.04664
-0.00808
-0.00170
0.04843
0.17630
0.11430
-0.08419
-0.09773
0.06814
0.07669
0.17472
-0.11781
-0.09480
0.04267
0.21984
-0.00373
0.02780
0.07032
0.05146
0.01700
0.06858
-0.00563
0.07763
0.08963
0.00028
-0.12665
-0.04302
-0.09415
-0.11756
0.04296
0.11057
-0.11781
0.08611
0.01906
0.13876
0.10762
0.08641
-0.14261
-0.04217
-0.06055
0.42874
-0.10632
0.02578
0.00368
0.06805
0.06865
-0.00050
-0.01568
0.07433
0.10680
-0.16194
-0.07885
0.12126
-0.00275
-0.06933
0.08418
-0.00892
-0.05242
0.15362
0.02396
0.15711
-0.04189
0.22893
0.38149
0.04738
-0.08651
-0.08386
-0.18903
0.09849
0.15584
0.18794
-0.02843
0.05420
0.15460
0.01087
-0.00427
0.23445
0.06587
0.25083
-0.18142
0.01189
0.04007
0.08170
-0.05942
-0.17879
0.03484
0.01002
-0.02615
0.20371
0.01234
-0.09266
-0.04556
0.13639
-0.10904
0.08150
0.01792
-0.02103
-0.04753
0.06418
-0.15416
0.42661
-0.15284
-0.06833
-0.05431
0.12094
-0.00971
0.06408
-0.03927
0.00105
-0.03743
0.06890
-0.21745
0.11321
-0.11928
0.10258
0.10138
-0.15367
0.10132
-0.10607
-0.12868
0.07611
-0.06964
-0.11516
0.11188
0.01177
-0.00382
-0.10648
0.14799
-0.14583
0.06978
-0.09864
0.19479
0.12462
-0.03106
0.07046
-0.00628
0.10616
0.07176
-0.06655
0.15962
0.29551
-0.16385
-0.12325
0.23580
0.03670
-0.06985
-0.09300
0.01580
0.00620
0.27410
-0.09355
0.12435
0.14157
-0.11804
0.02352
0.01656
-0.13864
-0.06765
-0.09766
-0.04676
0.19813
0.16158
0.02517
0.08122
0.02212
-0.08711
-0.10746
-0.13522
0.02096
-0.04293
-0.15552
0.03870
-0.12598
-0.09341
-0.15390
-0.15746
-0.13568
-0.15774
-0.15932
-0.11565
-0.17134
-0.09937
-0.19289
0.08195
-0.21292
-0.05849
-0.25659
-0.00330
-0.24750
-0.03983
0.10000
