# vtk DataFile Version 3.0
Point representing Sub_cellular elem model
ASCII

DATASET UNSTRUCTURED_GRID
POINTS 656 float
-0.00251 1.73829 1.01864 
0.00200 1.74032 -1.12903 
1.74178 1.07618 -0.04909 
1.74309 -1.07543 -0.04704 
0.00338 -1.74375 -1.12481 
0.00071 -1.73668 1.02546 
1.07244 0.00155 1.70557 
-1.06904 0.00180 1.70749 
1.07982 -0.00225 -1.78986 
-1.07341 -0.00313 -1.79270 
-1.74257 1.07489 -0.05613 
-1.74056 -1.07802 -0.05233 
0.00023 2.05249 -0.05455 
1.02461 1.65893 0.58232 
0.62900 1.02196 1.61279 
-0.63870 1.02392 1.60520 
-1.02814 1.65884 0.57641 
1.02817 1.66001 -0.68541 
0.63734 1.02404 -1.71065 
-0.63170 1.02370 -1.71252 
-1.02608 1.65998 -0.68957 
2.05341 0.00062 -0.04775 
1.65634 0.63399 0.97729 
1.66344 0.63334 -1.07511 
1.02960 -1.66159 -0.68170 
1.02640 -1.65732 0.58656 
1.65684 -0.63158 0.97856 
1.66406 -0.63543 -1.07389 
0.00228 -2.05287 -0.04873 
0.63812 -1.02874 -1.70863 
-0.63089 -1.02936 -1.71024 
-1.02408 -1.66303 -0.68464 
0.62978 -1.01911 1.61927 
-0.63649 -1.02255 1.61209 
-1.02491 -1.65945 0.58276 
0.26392 0.11132 2.40865 
-1.66008 0.63120 0.97092 
-1.65851 -0.63272 0.97314 
0.00361 -0.00305 -2.10182 
-1.65991 0.63209 -1.08059 
-1.65905 -0.63733 -1.07872 
-2.05279 -0.00202 -0.05470 
-0.00108 1.97008 0.51560 
0.52136 1.76892 0.83998 
0.32038 1.44472 1.36112 
-0.32745 1.44507 1.35821 
-0.52565 1.76916 0.83638 
0.00123 1.97124 -0.62507 
0.52554 1.77067 -0.94696 
0.32616 1.44611 -1.46976 
-0.32123 1.44603 -1.47082 
-0.52220 1.77071 -0.94898 
1.44715 1.41778 0.27339 
1.44928 1.41805 -0.37358 
1.97195 0.57165 -0.04830 
1.76966 0.89473 0.47454 
1.77344 0.89462 -0.57242 
1.97272 -0.57057 -0.04730 
1.45073 -1.41848 -0.37061 
1.44872 -1.41656 0.27639 
1.77073 -0.89277 0.47620 
1.77444 -0.89522 -0.57072 
0.52693 -1.77326 -0.94281 
0.00295 -1.97312 -0.61989 
0.32725 -1.45038 -1.46661 
-0.32009 -1.45074 -1.46745 
-0.52056 -1.77395 -0.94424 
0.52374 -1.76712 0.84565 
0.00146 -1.96932 0.52189 
0.32304 -1.44187 1.36832 
-0.32333 -1.44318 1.36590 
-0.52220 -1.76848 0.84345 
0.89412 0.52442 1.73043 
1.41406 0.32372 1.40066 
1.41418 -0.32139 1.40160 
0.89486 -0.52253 1.73326 
0.55991 -0.00679 1.97243 
-0.89670 0.52242 1.72813 
-0.89920 -0.51994 1.73153 
-0.55085 0.00550 1.98567 
-1.41572 0.32129 1.39714 
-1.41571 -0.32029 1.39774 
0.89823 0.52115 -1.82059 
1.42168 0.32184 -1.49656 
1.42197 -0.32530 -1.49595 
0.89864 -0.52589 -1.81961 
0.57497 -0.00273 -2.02016 
-0.89208 0.52052 -1.82302 
-0.89167 -0.52668 -1.82188 
-0.56793 -0.00318 -2.02156 
-1.41643 0.32071 -1.50070 
-1.41610 -0.32665 -1.49988 
-1.44944 1.41700 0.26669 
-1.44877 1.41756 -0.37953 
-1.77241 0.89268 0.46725 
-1.77203 0.89336 -0.57897 
-1.97223 0.56957 -0.05561 
-1.44655 -1.42060 -0.37492 
-1.44676 -1.41893 0.27180 
-1.77042 -0.89521 0.47065 
-1.77054 -0.89760 -0.57601 
-1.97108 -0.57334 -0.05351 
0.55608 1.95030 0.25213 
-0.55724 1.95056 0.24903 
0.55753 1.95088 -0.35826 
-0.55617 1.95109 -0.36081 
0.89638 1.39124 1.15322 
1.05122 1.76181 -0.05146 
1.39124 1.20430 0.84995 
-0.00269 1.05402 1.70686 
1.20060 0.89876 1.34501 
0.30125 0.54304 1.93953 
-0.90339 1.39117 1.14656 
-0.30312 0.56045 1.92538 
-1.20700 0.89634 1.33892 
-1.05164 1.76189 -0.05646 
-1.39625 1.20271 0.84290 
0.90296 1.39328 -1.25649 
1.39714 1.20500 -0.95014 
0.00297 1.04818 -1.81309 
1.20887 0.89867 -1.44415 
0.30889 0.55361 -2.00066 
-0.89884 1.39302 -1.25960 
-0.30227 0.55340 -2.00144 
-1.20411 0.89796 -1.44793 
-1.39430 1.20440 -0.95518 
1.94922 0.30625 0.50815 
1.95337 0.30533 -0.60460 
1.94960 -0.30401 0.50866 
1.95375 -0.30576 -0.60405 
1.75827 0.00121 1.00231 
1.76546 -0.00102 -1.09887 
1.05293 -1.76168 -0.04735 
1.39824 -1.20704 -0.94768 
0.55923 -1.95177 -0.35339 
0.90407 -1.39655 -1.25353 
1.39240 -1.20204 0.85279 
0.55810 -1.94968 0.25734 
0.89784 -1.38863 1.15811 
1.20115 -0.89622 1.34813 
1.20962 -0.90220 -1.44238 
-0.55407 -1.95266 -0.35503 
-0.55464 -1.95082 0.25550 
0.00374 -1.05363 -1.81096 
0.30930 -0.55926 -1.99964 
-0.89748 -1.39760 -1.25596 
-0.30187 -0.55952 -2.00037 
-1.20321 -0.90346 -1.44564 
-1.04910 -1.76347 -0.05062 
-1.39273 -1.20879 -0.95164 
-0.00208 -1.05092 1.71669 
0.29340 -0.54920 1.94363 
-0.89933 -1.39097 1.15287 
-0.31364 -0.55661 1.93859 
-1.20490 -0.89661 1.34209 
-1.39324 -1.20403 0.84759 
-1.76037 -0.00066 0.99668 
-1.95102 0.30362 0.50113 
-1.95029 -0.30657 0.50232 
-1.76121 -0.00276 -1.10427 
-1.95125 0.30335 -0.61121 
-1.95071 -0.30815 -0.61018 
-0.00180 1.87064 0.77833 
0.25864 1.77036 0.93992 
0.15828 1.60846 1.19949 
-0.16441 1.60857 1.19819 
-0.26328 1.77051 0.93804 
0.00164 1.87235 -0.88824 
0.26300 1.77232 -1.04872 
0.16362 1.61048 -1.30933 
-0.15912 1.61047 -1.30989 
-0.25927 1.77234 -1.04970 
1.61175 1.25697 0.11174 
1.61287 1.25703 -0.21082 
1.87337 0.83508 -0.04865 
1.77264 0.99619 0.21200 
1.77451 0.99618 -0.30995 
1.87445 -0.83415 -0.04714 
1.61428 -1.25686 -0.20830 
1.61322 -1.25598 0.11425 
1.77388 -0.99477 0.21385 
1.77569 -0.99607 -0.30806 
0.26440 -1.77535 -1.04449 
0.00319 -1.87502 -0.88350 
0.16486 -1.61438 -1.30562 
-0.15785 -1.61457 -1.30604 
-0.25778 -1.77569 -1.04519 
0.26145 -1.76862 0.94622 
0.00106 -1.86944 0.78487 
0.16147 -1.60630 1.20640 
-0.16067 -1.60678 1.20554 
-0.25990 -1.76931 0.94512 
0.99910 0.26132 1.73399 
1.25474 0.16128 1.56801 
1.25501 -0.15859 1.56849 
1.00031 -0.25841 1.73479 
0.83056 0.00121 1.84954 
-0.99642 0.25990 1.73514 
-0.99763 -0.25676 1.73695 
-0.82470 0.00177 1.85579 
-1.25367 0.16010 1.56699 
-1.25416 -0.15749 1.56736 
0.99972 0.25866 -1.82202 
1.26068 0.15929 -1.66050 
1.26082 -0.16332 -1.66020 
0.99994 -0.26331 -1.82153 
0.83857 -0.00251 -1.92152 
-0.99342 0.25790 -1.82467 
-0.99320 -0.26415 -1.82410 
-0.83179 -0.00317 -1.92363 
-1.25478 0.15827 -1.66397 
-1.25464 -0.16441 -1.66359 
-1.61332 1.25591 0.10486 
-1.61309 1.25615 -0.21741 
-1.77444 0.99457 0.20473 
-1.77421 0.99491 -0.31683 
-1.87397 0.83339 -0.05593 
-1.61091 -1.25925 -0.21316 
-1.61095 -1.25846 0.10931 
-1.77242 -0.99739 0.20839 
-1.77244 -0.99860 -0.31341 
-1.87234 -0.83687 -0.05290 
-0.00039 2.03157 0.23512 
0.00077 2.03213 -0.34432 
0.28477 2.02645 0.09439 
-0.28500 2.02662 0.09286 
0.28542 2.02674 -0.20200 
-0.28446 2.02688 -0.20339 
0.77939 1.73156 0.71967 
1.24952 1.55328 0.43193 
0.80447 1.82673 0.41742 
0.97851 1.54066 0.87848 
1.04492 1.73537 0.27013 
1.21887 1.44975 0.73131 
0.48031 1.24860 1.49913 
0.76932 0.78156 1.68883 
0.77772 1.21750 1.39978 
0.32216 1.04721 1.68318 
0.92562 0.97938 1.49362 
0.46498 0.79930 1.79111 
-0.48853 1.24971 1.49395 
-0.77703 0.78114 1.68296 
-0.32987 1.04962 1.67815 
-0.78629 1.21798 1.39280 
-0.47417 0.80520 1.78178 
-0.93385 0.97835 1.48706 
-0.78334 1.73173 0.71468 
-1.25249 1.55284 0.42553 
-0.80677 1.82693 0.41281 
-0.98378 1.54049 0.87216 
-1.04683 1.73539 0.26468 
-1.22344 1.44904 0.72455 
0.78331 1.73301 -0.82469 
1.25249 1.55392 -0.53347 
0.80689 1.82760 -0.52206 
1.04674 1.73590 -0.37309 
0.98369 1.54230 -0.98179 
1.22367 1.45080 -0.83293 
0.48574 1.24873 -1.60506 
0.77626 0.77897 -1.78325 
0.78536 1.21961 -1.50189 
0.32481 1.04301 -1.78668 
0.93393 0.97939 -1.59302 
0.47338 0.80281 -1.87779 
-0.48043 1.24854 -1.60656 
-0.77035 0.77849 -1.78542 
-0.31895 1.04284 -1.78760 
-0.78041 1.21929 -1.50438 
-0.46719 0.80252 -1.87907 
-0.92867 0.97888 -1.59584 
-0.78053 1.73305 -0.82779 
-1.25118 1.55371 -0.53859 
-0.80517 1.82774 -0.52553 
-1.04583 1.73595 -0.37767 
-0.98053 1.54215 -0.98546 
-1.22119 1.45051 -0.83759 
2.03278 0.29066 -0.04801 
2.03318 -0.28947 -0.04751 
2.02637 0.14919 0.23679 
2.02853 0.14859 -0.33266 
2.02658 -0.14734 0.23703 
2.02873 -0.14815 -0.33240 
1.73059 0.77279 0.73231 
1.54955 0.48275 1.20218 
1.53923 0.92988 0.93177 
1.44664 0.78153 1.17207 
1.82480 0.47052 0.75672 
1.73212 0.32229 0.99676 
1.73618 0.77248 -0.83019 
1.55748 0.48154 -1.29955 
1.54592 0.92997 -1.03064 
1.45450 0.78119 -1.27061 
1.83062 0.46959 -0.85387 
1.73929 0.32080 -1.09391 
1.25393 -1.55494 -0.53009 
0.78471 -1.73512 -0.82071 
1.04832 -1.73661 -0.36912 
1.22494 -1.45267 -0.82984 
0.80845 -1.82883 -0.51775 
0.98495 -1.54474 -0.97842 
1.25118 -1.55186 0.43551 
0.78141 -1.72980 0.72463 
1.04671 -1.73445 0.27430 
1.22038 -1.44775 0.73491 
0.80642 -1.82560 0.42219 
0.98019 -1.53849 0.88293 
1.73140 -0.77048 0.73376 
1.54980 -0.48039 1.20331 
1.82528 -0.46812 0.75755 
1.73236 -0.31987 0.99736 
1.54004 -0.92750 0.93380 
1.44713 -0.77910 1.17407 
1.73700 -0.77383 -0.82871 
1.55793 -0.48435 -1.29862 
1.83114 -0.47087 -0.85299 
1.73962 -0.32286 -1.09330 
1.54681 -0.93208 -1.02881 
1.45520 -0.78403 -1.26909 
0.00264 -2.03323 -0.33877 
0.00188 -2.03133 0.24118 
0.28727 -2.02732 -0.19663 
0.28680 -2.02633 0.09997 
-0.28238 -2.02782 -0.19749 
-0.28270 -2.02689 0.09906 
0.48668 -1.25328 -1.60248 
0.77687 -0.78373 -1.78175 
0.78631 -1.22365 -1.49939 
0.93471 -0.98354 -1.59108 
0.32559 -1.04815 -1.78460 
0.47398 -0.80805 -1.87625 
-0.47944 -1.25378 -1.60372 
-0.76973 -0.78445 -1.78371 
-0.31817 -1.04846 -1.78540 
-0.77935 -1.22448 -1.50144 
-0.46660 -0.80847 -1.87741 
-0.92781 -0.98448 -1.59352 
-0.77871 -1.73618 -0.82290 
-1.24903 -1.55673 -0.53375 
-0.80309 -1.83003 -0.52009 
-0.97884 -1.54599 -0.98115 
-1.04356 -1.73822 -0.37223 
-1.21937 -1.45428 -0.83331 
0.48189 -1.24524 1.50653 
0.77009 -0.77974 1.69345 
0.77891 -1.21458 1.40541 
0.92638 -0.97673 1.49820 
0.32245 -1.04366 1.69209 
0.46411 -0.79823 1.79775 
-0.48464 -1.24790 1.50163 
-0.77740 -0.77940 1.68863 
-0.32796 -1.04699 1.68735 
-0.78247 -1.21723 1.39904 
-0.47634 -0.80292 1.79096 
-0.93157 -0.97789 1.49169 
-0.77994 -1.73167 0.72150 
-1.24951 -1.55413 0.43128 
-0.80383 -1.82731 0.41937 
-1.04398 -1.73643 0.27082 
-0.98008 -1.54073 0.87858 
-1.22014 -1.45001 0.73027 
0.32072 -0.27304 2.14184 
0.05279 -0.31664 2.34612 
0.41028 0.01512 2.16847 
0.03678 0.14572 2.50798 
-0.19511 -0.42039 2.12383 
-0.39621 -0.17954 2.18911 
-1.55280 0.47990 1.19695 
-1.73407 0.77032 0.72528 
-1.45151 0.77868 1.16599 
-1.54390 0.92747 0.92492 
-1.73491 0.31977 0.99082 
-1.82761 0.46787 0.74996 
-1.55185 -0.48040 1.19830 
[...]
CELL_DATA 1960
SCALARS Strain double 
LOOKUP_TABLE default 
-0.08915
-0.08818
-0.08824
-0.08908
-0.08755
-0.08825
-0.08714
-0.08781
-0.08757
-0.08725
-0.08799
-0.08784
-0.08805
-0.08765
-0.08762
-0.08792
-0.08766
-0.08787
-0.08761
-0.08779
-0.08726
-0.08796
-0.08772
-0.08758
-0.08735
-0.08903
-0.08769
-0.08723
-0.08869
-0.08813
-0.09887
-0.07473
-0.07413
-0.09907
-0.06544
-0.10512
-0.10407
-0.05106
-0.06751
-0.06517
-0.08759
-0.08749
-0.08764
-0.08753
-0.08753
-0.08741
-0.08743
-0.08760
-0.08763
-0.08760
-0.08838
-0.08694
-0.08765
-0.08857
-0.08722
-0.08762
-0.08785
-0.08778
-0.08782
-0.08762
-0.03575
-0.03560
0.06979
0.06943
0.06933
0.06993
-0.03619
-0.03568
0.06970
0.06980
0.06923
0.06910
-0.02417
-0.04197
0.07954
0.04856
0.07067
0.09252
-0.02686
-0.03705
0.05700
0.07355
0.08137
0.06628
-0.03572
-0.03585
0.07082
0.06782
0.06752
0.07121
-0.03384
-0.03397
0.06932
0.06889
0.06899
0.06940
-0.03421
-0.03418
0.06937
0.06971
0.06965
0.06944
-0.03397
-0.03394
0.06975
0.06909
0.06927
0.06973
-0.03352
-0.03343
0.06993
0.06782
0.06817
0.06995
-0.03461
-0.03458
0.06949
0.06908
0.06921
0.06947
-0.03322
-0.03288
0.06725
0.06905
0.06941
0.06697
-0.03410
-0.03408
0.06954
0.06934
0.06920
0.06958
-0.03383
-0.03377
0.06905
0.06943
0.06942
0.06908
-0.03511
-0.03583
0.07000
0.06839
0.06927
0.07114
-0.03328
-0.03302
0.07036
0.06665
0.06664
0.07052
-0.03440
-0.03435
0.06961
0.06960
0.06955
0.06969
-0.03483
-0.03484
0.06939
0.06949
0.06958
0.06932
-0.03421
-0.03417
0.06931
0.06978
0.06978
0.06936
-0.03404
-0.03401
0.06971
0.06920
0.06929
0.06966
-0.03390
-0.03394
0.06970
0.06893
0.06881
0.06974
-0.02796
-0.04645
0.08189
0.07288
0.05175
0.09154
-0.02612
-0.03298
0.05749
0.07375
0.08035
0.06842
-0.03504
-0.03496
0.06938
0.06859
0.06871
0.06934
0.02426
-0.00344
-0.01309
0.01080
-0.05950
-0.13222
-0.02925
-0.03110
0.06711
0.06753
0.06544
0.06846
-0.03050
-0.03236
0.06746
0.06795
0.06626
0.06891
-0.03406
-0.03407
0.06949
0.06946
0.06945
0.06947
-0.03470
-0.03490
0.06958
0.07020
0.07023
0.06950
-0.03434
-0.03437
0.06935
0.06997
0.07006
0.06916
-0.03396
-0.03406
0.06872
0.06975
0.06954
0.06870
-0.06735
-0.04668
0.07961
0.07924
0.03352
0.03413
-0.06676
-0.04669
0.07971
0.07789
0.03263
0.03450
-0.06558
-0.04299
0.07720
0.08028
0.03180
0.02982
-0.06731
-0.04619
0.08153
0.07700
0.03183
0.03461
-0.06578
-0.04571
0.07956
0.07694
0.03154
0.03455
-0.06662
-0.04622
0.07984
0.08032
0.03463
0.03435
-0.06517
-0.04457
0.07975
0.07924
0.03336
0.03403
-0.06580
-0.04508
0.07948
0.08024
0.03449
0.03400
-0.06554
-0.04483
0.08026
0.07917
0.03378
0.03455
-0.06519
-0.04445
0.08025
0.07883
0.03284
0.03446
-0.06635
-0.04608
0.07971
0.07914
0.03388
0.03441
-0.06577
-0.04495
0.07952
0.07956
0.03376
0.03385
-0.06617
-0.04549
0.07981
0.07940
0.03387
0.03417
-0.06545
-0.04444
0.07866
0.07958
0.03337
0.03270
-0.06562
-0.04494
0.07963
0.07940
0.03389
0.03402
-0.06603
-0.04539
0.07962
0.07971
0.03406
0.03381
-0.06556
-0.04477
0.07952
0.07963
0.03391
0.03379
-0.06601
-0.04555
0.07983
0.07900
0.03376
0.03468
-0.06543
-0.04444
0.07976
0.07858
0.03270
0.03403
-0.06589
-0.04525
0.07978
0.07969
0.03411
0.03426
-0.06525
-0.04458
0.07981
0.07941
0.03363
0.03407
-0.06614
-0.04559
0.07988
0.08006
0.03441
0.03427
-0.06575
-0.04507
0.07954
0.08018
0.03450
0.03400
-0.06559
-0.04490
0.08015
0.07941
0.03387
0.03441
-0.06537
-0.04471
0.08003
0.07930
0.03353
0.03431
-0.06735
-0.04679
0.07954
0.08020
0.03413
0.03416
-0.06602
-0.04557
0.07941
0.07885
0.03338
0.03382
-0.06473
-0.04351
0.08037
0.07755
0.03039
0.03369
-0.06718
-0.04595
0.07964
0.07922
0.03337
0.03445
-0.06603
-0.04548
0.07869
0.07895
0.03314
0.03310
-0.05947
-0.04106
0.08116
0.08122
0.03594
0.03334
-0.06227
-0.04325
0.07958
0.07667
0.03274
0.03502
-0.06280
-0.04352
0.07678
0.08053
0.03604
0.03219
-0.05578
-0.04174
0.08197
0.06676
0.03338
0.03648
-0.01280
0.31467
0.15776
0.12900
0.02610
0.02563
-0.06736
-0.04179
0.09308
0.07968
0.02870
0.04465
-0.06692
-0.03780
0.10476
0.07848
0.02918
0.04479
0.00634
0.14602
0.15814
0.02669
0.02698
-0.05457
-0.03762
0.08078
0.06988
0.02844
0.03729
-0.05294
-0.03804
0.07825
0.07128
0.03153
0.03523
-0.06563
-0.04498
0.07980
0.07982
0.03413
0.03419
-0.06554
-0.04489
0.07972
0.07986
0.03417
0.03397
-0.06573
-0.04513
0.07986
0.07994
0.03425
0.03419
-0.06559
-0.04496
0.07995
0.07969
0.03399
0.03427
-0.06555
-0.04489
0.07982
0.07972
0.03406
0.03413
-0.06541
-0.04476
0.07973
0.07981
0.03418
0.03391
-0.06545
-0.04481
0.07972
0.07980
0.03418
0.03396
-0.06560
-0.04492
0.07981
0.07979
0.03415
0.03415
-0.06581
-0.04533
0.07977
0.08025
0.03459
0.03407
-0.06571
-0.04512
0.07970
0.08020
0.03448
0.03392
-0.06687
-0.04656
0.07855
0.08106
0.03546
0.03368
-0.06486
-0.04420
0.07826
0.08006
0.03408
0.03275
-0.06506
-0.04336
0.08024
0.07828
0.03186
0.03348
-0.06665
-0.04590
0.08033
0.07992
0.03443
0.03484
-0.06530
-0.04471
0.07865
0.07993
0.03448
0.03313
-0.06556
-0.04482
0.07918
0.07996
0.03414
0.03361
-0.06616
-0.04572
0.07923
0.07978
0.03422
0.03378
-0.06553
-0.04426
0.07935
0.07944
0.03307
0.03309
-0.06586
-0.04520
0.08010
0.07939
0.03397
0.03456
-0.06568
-0.04497
0.07977
0.07930
0.03376
0.03406
0.07218
0.07217
0.01973
0.01914
0.01609
0.01647
0.07216
0.07261
0.02051
0.01808
0.01512
0.01724
0.07178
0.07178
0.02085
0.01951
0.01620
0.01757
0.07250
0.07247
0.02079
0.01884
0.01537
0.01781
0.07350
0.07612
0.02174
0.01501
0.01469
0.01534
0.07149
0.07139
0.02044
0.01988
0.01651
0.01745
0.07087
0.07017
0.02124
0.01915
0.01540
0.01869
0.08161
0.09053
0.01263
0.01977
0.02429
0.00094
0.07170
0.07163
0.02260
0.01816
0.01482
0.01924
0.12344
-0.13141
0.06148
0.02602
0.10514
0.02616
0.07245
0.07095
0.01631
0.02274
0.01852
0.01343
0.10004
-0.02162
0.05821
0.02611
0.05892
0.02616
0.06699
0.06828
0.02714
0.01782
0.01753
0.02126
0.06995
0.07006
0.02154
0.02027
0.01710
0.01808
0.07349
0.07215
0.02100
0.01731
0.01347
0.01927
0.07164
0.07177
0.02037
0.02072
0.01744
0.01724
0.07197
0.07201
0.02022
0.02036
0.01732
0.01711
0.07226
0.07227
0.02040
0.02024
0.01714
0.01726
0.07207
0.07197
0.02040
0.02047
0.01727
0.01717
0.07198
0.07199
0.02053
0.02038
0.01718
0.01737
0.07134
0.07102
0.02086
0.02079
0.01766
0.01768
0.07188
0.07194
0.02053
0.02047
0.01729
0.01737
0.07219
0.07215
0.02004
0.02090
0.01770
0.01664
0.07254
0.07264
0.01930
0.02081
0.01767
0.01639
0.07202
0.07198
0.02036
0.01900
0.01588
0.01744
0.07156
0.07161
0.02048
0.02038
0.01725
0.01731
0.07198
0.07239
0.02042
0.01902
0.01588
0.01726
0.07200
0.07205
0.02006
0.02045
0.01727
0.01689
0.06971
0.06959
0.02050
0.02140
0.01776
0.01723
0.07211
0.07212
0.02020
0.02054
0.01734
0.01695
0.07164
0.07192
0.02012
0.02036
0.01737
0.01678
0.07197
0.07201
0.02012
0.02068
0.01757
0.01698
0.07192
0.07192
0.01988
0.02069
0.01746
0.01668
0.07167
0.07175
0.02038
0.02081
0.01761
0.01722
0.06997
0.06930
0.02176
0.02020
0.01661
0.01951
0.07190
0.07193
0.02012
0.01979
0.01668
0.01675
0.07562
0.07888
0.02059
0.01522
0.01566
0.01355
0.07336
0.07326
0.01690
0.02296
0.02022
0.01309
0.07224
0.07227
0.02047
0.02027
0.01704
0.01726
0.07216
0.07218
0.02057
0.01973
0.01643
0.01738
0.07175
0.07174
0.02024
0.01946
0.01633
0.01710
0.07228
0.07225
0.02036
0.02025
0.01714
0.01722
0.07190
0.07193
0.02059
0.02041
0.01719
0.01740
0.07162
0.07153
0.02068
0.02064
0.01749
0.01744
0.07187
0.07193
0.02053
0.02045
0.01725
0.01738
0.07210
0.07200
0.02020
0.02075
0.01753
0.01696
0.07119
0.07111
0.02034
0.02054
0.01738
0.01710
0.07232
0.07240
0.02001
0.02044
0.01737
0.01690
0.08084
0.08639
0.01776
0.01850
0.01384
0.01147
0.11327
-0.11457
0.08794
0.02546
0.06982
0.02578
0.07295
0.07164
0.01775
0.02074
0.01692
0.01552
0.09578
0.09669
0.04244
0.02568
0.07160
0.02553
0.06913
0.06920
0.02522
0.02028
0.01785
0.01926
0.07190
0.07151
0.02043
0.01878
0.01532
0.01790
0.06738
0.06774
0.02262
0.02196
0.01883
0.01843
0.07133
0.07131
0.01921
0.02124
0.01854
0.01579
0.07219
0.07239
0.01905
0.02037
0.01768
0.01575
0.07271
0.07265
0.02033
0.02006
0.01668
0.01711
0.07194
0.07194
0.02118
0.01953
0.01650
0.01797
0.07146
0.07129
0.02098
0.02030
0.01709
0.01790
0.07069
0.07018
-0.00653
-0.00590
0.06893
-0.00750
-0.00590
0.07139
-0.00682
-0.00839
0.06901
-0.00692
-0.00553
-0.00794
-0.00663
0.07106
0.07143
-0.00527
-0.00548
0.07060
-0.00653
-0.00591
0.07154
-0.00532
-0.00588
0.07034
-0.00612
-0.00532
-0.00677
-0.00557
0.07094
0.07040
-0.00606
-0.00564
0.07068
-0.00622
-0.00591
0.07090
0.07069
-0.00592
-0.00576
-0.00638
-0.00667
-0.00603
-0.00607
0.07084
0.07094
-0.00580
-0.00603
0.07090
0.07078
-0.00605
-0.00605
0.07050
-0.00598
-0.00559
-0.00655
-0.00607
-0.00593
-0.00572
0.07109
0.07074
-0.00623
-0.00585
0.07127
-0.00544
-0.00557
0.07142
-0.00538
-0.00587
0.07063
-0.00601
-0.00547
-0.00628
-0.00566
0.07068
0.07089
-0.00591
-0.00556
0.06968
-0.00696
-0.00623
0.06953
-0.00826
-0.00664
0.07110
-0.00514
-0.00620
-0.00629
-0.00729
0.06507
0.09822
-0.00584
-0.01979
0.06199
-0.00408
-0.00463
0.06291
-0.00485
-0.00329
0.09805
-0.00840
-0.02740
-0.03635
-0.03112
0.10452
0.07279
-0.01174
0.00602
0.10544
0.07287
-0.00175
0.00948
-0.03799
-0.03785
0.05441
-0.01209
0.00168
-0.00995
-0.00077
0.07100
0.07110
-0.00571
-0.00574
0.07107
-0.00576
-0.00587
0.07114
-0.00566
-0.00572
0.07096
-0.00587
-0.00568
-0.00582
-0.00574
0.07107
0.07100
-0.00577
-0.00589
0.07106
0.07097
-0.00577
-0.00585
-0.00568
-0.00568
0.07133
-0.00546
-0.00582
-0.00551
-0.00591
0.06996
0.07190
-0.00471
-0.00596
0.07117
-0.00621
-0.00701
0.06978
-0.00738
-0.00564
0.07125
-0.00529
-0.00523
-0.00549
-0.00682
0.07060
0.07110
-0.00592
-0.00617
0.07094
-0.00571
-0.00596
0.07081
-0.00640
-0.00618
0.07070
-0.00589
-0.00556
-0.00598
-0.00592
0.05591
0.05653
0.07729
0.07694
0.05673
0.05639
0.07721
0.07776
-0.01596
-0.01748
0.04918
-0.01644
-0.01800
0.04994
-0.01720
0.04994
-0.01760
0.04989
0.05535
0.05676
0.07742
0.07618
0.05616
0.05663
0.07711
0.07664
-0.01591
-0.01724
0.04872
-0.01680
-0.01929
0.04870
-0.01700
0.04977
-0.01761
0.05066
0.04617
0.04696
0.07406
0.07725
0.05863
0.06761
0.07855
0.07255
-0.01857
-0.01244
0.04758
0.01523
-0.01160
0.02085
-0.01780
0.05251
-0.03335
0.00538
0.04537
0.04936
0.08239
0.07176
0.06071
0.05960
0.07592
0.07212
0.00320
-0.02015
0.02313
-0.01465
-0.01241
0.04524
-0.02801
0.02784
-0.01591
0.05208
0.05374
0.05801
0.07785
0.07430
0.05771
0.05531
0.07567
0.07882
-0.01539
-0.01644
0.04728
-0.01743
-0.01867
0.05134
-0.01684
0.05063
-0.01870
0.04945
0.05557
0.05620
0.07712
0.07667
0.05603
0.05588
0.07677
0.07708
-0.01438
-0.01566
0.04880
-0.01593
0.04922
-0.01445
-0.01573
0.04958
-0.01598
0.04931
0.05654
0.05619
0.07702
0.07755
0.05623
0.05641
0.07729
0.07721
-0.01466
-0.01609
0.04979
-0.01471
-0.01615
0.04958
-0.01603
0.04949
-0.01608
0.04978
0.05599
0.05663
0.07759
0.07671
0.05644
0.05598
0.07707
0.07734
-0.01455
-0.01597
0.04945
-0.01434
-0.01577
0.04993
-0.01592
0.04979
-0.01570
0.04910
0.05477
0.05672
0.07771
0.07605
0.05655
0.05488
0.07552
0.07762
-0.01394
-0.01549
0.04777
-0.01517
0.04986
-0.01408
-0.01551
0.05008
-0.01546
0.04853
0.05598
0.05631
0.07727
0.07680
0.05624
0.05591
0.07700
0.07716
-0.01550
-0.01694
0.04952
-0.01480
-0.01624
0.04964
-0.01688
0.04959
-0.01617
0.04920
0.05554
0.05428
0.07551
0.07699
0.05391
0.05659
0.07730
0.07437
-0.01328
-0.01505
0.04846
-0.01466
0.04724
-0.01413
-0.01573
0.04769
-0.01545
0.04963
0.05609
0.05631
0.07720
0.07687
0.05635
0.05606
0.07711
0.07731
-0.01466
-0.01609
0.04956
-0.01602
0.04965
-0.01457
-0.01598
0.04968
-0.01594
0.04930
0.05614
0.05590
0.07685
0.07713
0.05580
0.05624
0.07720
0.07681
-0.01437
-0.01588
0.04941
-0.01428
-0.01574
0.04928
-0.01571
0.04911
-0.01564
0.04958
0.05584
0.05735
0.07749
0.07619
0.05655
0.05602
0.07706
0.07819
-0.01557
-0.01662
0.04956
-0.01603
-0.01677
0.05187
-0.01711
0.04944
-0.01897
0.04750
0.05411
0.05664
0.07755
0.07517
0.05778
0.05318
0.07407
0.07880
-0.01442
-0.01583
0.04760
-0.01595
0.05039
-0.01297
-0.01483
0.04995
-0.01440
0.04604
0.05636
0.05647
0.07729
0.07723
0.05642
0.05636
0.07732
0.07740
-0.01492
-0.01635
0.04971
-0.01626
0.04971
-0.01487
-0.01630
0.04987
-0.01621
0.04965
0.05645
0.05632
0.07726
0.07744
0.05592
0.05619
0.07701
0.07672
-0.01527
-0.01665
0.04972
-0.01659
0.04932
-0.01543
-0.01675
0.04961
-0.01684
0.04961
0.05663
0.05615
0.07701
0.07757
0.05613
0.05650
0.07744
0.07710
-0.01467
-0.01610
0.04994
-0.01603
0.04941
-0.01471
-0.01615
0.04952
-0.01606
0.04983
0.05604
0.05652
0.07752
0.07688
0.05642
0.05605
0.07707
0.07731
-0.01460
-0.01602
0.04945
-0.01445
-0.01588
0.04980
-0.01596
0.04979
-0.01581
0.04931
0.05563
0.05652
0.07746
0.07668
0.05642
0.05573
0.07654
0.07745
-0.01444
-0.01582
0.04883
-0.01444
-0.01579
0.04988
-0.01587
0.04969
-0.01590
0.04916
0.04667
0.05245
0.07836
0.07507
0.05699
0.07505
0.08005
0.06004
-0.02112
-0.01429
0.04880
-0.01944
0.05388
0.00410
-0.01412
0.02860
-0.04460
0.01874
0.04677
0.05078
0.08077
0.07366
0.05857
0.06011
0.08332
0.07383
0.00879
-0.01648
0.02181
-0.01459
-0.01374
0.04776
-0.01573
0.02645
-0.01343
0.05114
0.05512
0.05613
0.07662
0.07585
0.05629
0.05565
0.07647
0.07724
-0.01512
-0.01640
0.04858
-0.01644
0.04963
-0.01593
-0.01754
0.04928
-0.01733
0.04921
0.00573
-0.03799
-0.17799
-0.19280
-0.06197
-0.16623
-0.18136
0.15513
-0.21018
0.06199
-0.19303
-0.14114
0.05244
0.05666
0.07600
0.07050
0.05366
0.05426
0.07673
0.07569
-0.01070
-0.00981
0.04849
-0.01391
0.04584
-0.01209
-0.01270
0.04993
-0.01437
0.04690
0.05418
0.05604
0.07506
0.07206
0.05472
0.05434
0.07627
0.07671
-0.01251
-0.01172
0.04907
-0.01513
0.04728
-0.01291
-0.01281
0.05017
-0.01529
0.04704
0.05623
0.05627
0.07723
0.07716
0.05628
0.05627
0.07721
0.07721
-0.01456
-0.01595
0.04955
-0.01596
0.04962
-0.01454
-0.01593
0.04956
-0.01595
0.04958
0.05690
0.05625
0.07724
0.07784
0.05646
0.05706
0.07793
0.07728
-0.01533
-0.01651
0.05020
-0.01695
0.04986
-0.01530
-0.01650
0.04952
-0.01687
0.05039
0.05672
0.05601
0.07711
0.07773
0.05613
0.05684
0.07767
0.07684
-0.01491
-0.01625
0.04999
-0.01634
0.04961
-0.01483
-0.01618
0.04915
-0.01623
0.05026
0.05661
0.05538
0.07627
0.07731
0.05571
0.05629
0.07737
0.07657
-0.01517
-0.01645
0.05024
-0.01662
0.04925
-0.01413
-0.01546
0.04880
-0.01562
0.04952
-0.01879
-0.01820
-0.01932
-0.01737
0.08557
0.08556
-0.01946
-0.01635
0.08408
-0.01693
-0.02056
0.08992
-0.01734
-0.01794
0.08190
-0.01821
-0.01677
-0.01852
-0.01681
0.08548
0.08611
-0.01684
-0.01733
0.08519
-0.01743
-0.01722
0.08593
-0.01700
-0.01675
0.08474
-0.01791
-0.01731
-0.01829
-0.01671
0.08520
0.08437
-0.01733
-0.01733
0.08548
-0.01818
-0.01717
-0.01748
-0.01719
0.08556
0.08512
-0.01807
-0.01714
-0.01737
-0.01755
0.08561
0.08555
-0.01723
-0.01761
-0.01704
-0.01752
0.08539
0.08551
-0.01765
-0.01659
0.08390
-0.01688
-0.01778
-0.01683
-0.01731
0.08558
0.08525
-0.01784
-0.01701
0.08580
-0.01740
-0.01726
0.08589
-0.01710
-0.01695
0.08512
-0.01835
-0.01761
-0.02005
-0.01664
0.08533
0.08718
-0.01795
-0.01758
0.08493
-0.01603
-0.01859
0.08714
-0.01848
-0.01764
0.08366
-0.01758
-0.01646
0.01758
-0.07824
0.08656
0.04510
-0.01671
-0.01729
0.08319
-0.01674
-0.01832
0.08804
0.02833
-0.08205
-0.00243
0.01256
-0.06375
-0.02102
-0.00824
0.04252
0.08295
0.00160
-0.04369
-0.01661
-0.00907
0.07980
0.08289
-0.01327
-0.01192
0.07894
-0.01721
-0.01719
-0.01726
-0.01716
0.08555
0.08556
-0.01712
-0.01739
0.08566
-0.01736
-0.01719
0.08577
-0.01722
-0.01712
0.08547
-0.01712
-0.01718
-0.01689
-0.01750
0.08550
0.08563
-0.01714
-0.01718
-0.01698
-0.01738
0.08549
0.08556
-0.01751
-0.01732
0.08613
-0.01793
-0.01622
-0.01942
-0.01647
0.08378
0.08651
-0.01667
-0.01834
0.08613
-0.01638
-0.01745
0.08449
-0.01820
-0.01663
0.08557
-0.01710
-0.01754
-0.01720
-0.01758
0.08480
0.08590
-0.01826
-0.01702
0.08531
-0.01709
-0.01779
0.08562
-0.01740
-0.01692
0.08499
0.04859
0.04790
0.04749
0.04893
0.04865
0.04624
0.05034
0.04652
0.04679
0.11072
-0.04809
-0.02097
0.04935
0.04371
0.04936
0.04815
0.04836
0.04842
0.04853
0.04834
0.04826
0.04757
0.04865
0.04889
0.04833
0.04861
0.04647
0.04796
0.04841
0.04845
0.04794
0.04810
0.04841
0.04835
0.04809
0.04866
0.04513
0.05200
0.04830
0.04840
0.04833
0.04744
0.04855
0.04830
0.04825
0.04797
0.04846
0.04868
0.10478
-0.02593
-0.02924
0.04853
0.04582
0.04831
0.04553
0.04831
0.04914
0.04908
0.04823
0.04769
-0.16205
-0.17491
0.15155
-0.15531
0.00068
0.22587
0.15790
0.44615
-0.14073
-0.16750
0.01114
-0.02684
-0.02128
0.14118
0.17280
-0.08904
-0.15532
-0.13494
0.12308
-0.13269
-0.16904
-0.15475
0.18907
0.22441
-0.17625
-0.08083
-0.03101
-0.06447
0.12795
-0.03984
0.13221
-0.17057
-0.28675
-0.11341
0.05083
0.02553
0.04748
-0.21473
-0.17955
0.20029
0.17830
-0.02363
-0.09795
0.13559
-0.10992
-0.06271
0.10000
