# vtk DataFile Version 3.0
Point representing Sub_cellular elem model
ASCII

DATASET UNSTRUCTURED_GRID
POINTS 653 float
-0.00058 1.73816 1.03564 
0.00061 1.74058 -1.11673 
1.74123 1.07622 -0.03824 
1.74176 -1.07523 -0.03618 
0.00161 -1.74287 -1.11347 
0.00130 -1.73463 1.03907 
1.07161 0.00293 1.71502 
-1.08223 0.00120 1.71046 
1.07827 -0.00148 -1.77899 
-1.07495 -0.00203 -1.78055 
-1.74145 1.07542 -0.04126 
-1.74067 -1.07705 -0.03940 
-0.00014 2.05120 -0.04087 
1.02452 1.65862 0.59488 
0.62798 1.02464 1.62787 
-0.63734 1.02623 1.62543 
-1.02578 1.65929 0.59278 
1.02693 1.66016 -0.67386 
0.63583 1.02497 -1.69950 
-0.63322 1.02458 -1.70042 
-1.02628 1.65950 -0.67547 
2.05273 0.00051 -0.03712 
1.65736 0.63436 0.98810 
1.66221 0.63378 -1.06438 
1.02791 -1.66101 -0.67072 
1.02539 -1.65586 0.59868 
1.65651 -0.63168 0.99014 
1.66257 -0.63511 -1.06327 
0.00143 -2.05137 -0.03676 
0.63632 -1.02800 -1.69766 
-0.63265 -1.02826 -1.69858 
-1.02510 -1.66175 -0.67237 
0.62797 -1.01499 1.63536 
-0.63649 -1.02310 1.62433 
-1.02433 -1.65889 0.59557 
0.23252 -0.06903 2.38547 
-1.66142 0.63551 0.98426 
-1.66134 -0.63358 0.98464 
0.00187 -0.00200 -2.09053 
-1.66025 0.63273 -1.06685 
-1.65981 -0.63604 -1.06570 
-2.05255 -0.00083 -0.04085 
-0.00029 1.96886 0.53041 
0.52204 1.76832 0.85472 
0.32100 1.44493 1.37971 
-0.32446 1.44604 1.37880 
-0.52316 1.76916 0.85358 
0.00019 1.97070 -0.61211 
0.52416 1.77089 -0.93502 
0.32465 1.44689 -1.45816 
-0.32270 1.44667 -1.45864 
-0.52322 1.77054 -0.93581 
1.44681 1.41772 0.28472 
1.44832 1.41813 -0.36243 
1.97144 0.57163 -0.03766 
1.76982 0.89482 0.48539 
1.77245 0.89482 -0.56167 
1.97170 -0.57061 -0.03658 
1.44914 -1.41806 -0.35971 
1.44741 -1.41591 0.28774 
1.76986 -0.89268 0.48736 
1.77299 -0.89504 -0.56005 
0.52519 -1.77255 -0.93169 
0.00147 -1.97206 -0.60832 
0.32540 -1.44963 -1.45551 
-0.32189 -1.44976 -1.45598 
-0.52209 -1.77285 -0.93247 
0.52349 -1.76495 0.85860 
0.00145 -1.96737 0.53447 
0.32311 -1.43919 1.38317 
-0.32210 -1.44157 1.38072 
-0.52132 -1.76715 0.85680 
0.89627 0.52862 1.73790 
1.41551 0.32403 1.41070 
1.41394 -0.32133 1.41295 
0.89225 -0.51919 1.74548 
0.56009 0.01331 1.97861 
-0.90693 0.52610 1.73638 
-0.90665 -0.52361 1.73631 
-0.57153 -0.00075 1.97572 
-1.42272 0.32529 1.40658 
-1.42292 -0.32155 1.40641 
0.89672 0.52203 -1.80963 
1.42029 0.32249 -1.48581 
1.42045 -0.32475 -1.48524 
0.89696 -0.52513 -1.80870 
0.57330 -0.00180 -2.00909 
-0.89363 0.52153 -1.81093 
-0.89335 -0.52554 -1.81001 
-0.56967 -0.00208 -2.00995 
-1.41753 0.32168 -1.48786 
-1.41733 -0.32548 -1.48728 
-1.44775 1.41760 0.28202 
-1.44801 1.41731 -0.36480 
-1.77150 0.89480 0.48194 
-1.77149 0.89370 -0.56449 
-1.97150 0.57060 -0.04117 
-1.44696 -1.41936 -0.36224 
-1.44669 -1.41838 0.28440 
-1.77099 -0.89504 0.48324 
-1.77084 -0.89628 -0.56288 
-1.97111 -0.57227 -0.04019 
0.55577 1.94925 0.26526 
-0.55632 1.94936 0.26420 
0.55649 1.95032 -0.34579 
-0.55643 1.95005 -0.34672 
0.89667 1.39203 1.16735 
1.05041 1.76143 -0.03955 
1.39174 1.20483 0.86154 
-0.00527 1.05215 1.73014 
1.20201 0.90049 1.35627 
0.29235 0.55318 1.94821 
-0.89987 1.39397 1.16509 
-0.31801 0.55178 1.94319 
-1.20768 0.90219 1.35353 
-1.05072 1.76111 -0.04141 
-1.39436 1.20601 0.85863 
0.90156 1.39394 -1.24522 
1.39591 1.20545 -0.93915 
0.00137 1.04918 -1.80159 
1.20750 0.89940 -1.43323 
0.30726 0.55464 -1.98947 
-0.89988 1.39333 -1.24654 
-0.30395 0.55447 -1.98992 
-1.20518 0.89865 -1.43498 
-1.39454 1.20452 -0.94124 
1.94939 0.30614 0.51889 
1.95234 0.30547 -0.59400 
1.94934 -0.30423 0.51955 
1.95252 -0.30566 -0.59346 
1.75891 0.00096 1.01323 
1.76414 -0.00066 -1.08825 
1.05150 -1.76072 -0.03598 
1.39659 -1.20667 -0.93696 
0.55777 -1.95073 -0.34197 
0.90229 -1.39600 -1.24267 
1.39141 -1.20130 0.86492 
0.55721 -1.94803 0.26930 
0.89691 -1.38671 1.17178 
1.19997 -0.89515 1.36114 
1.20795 -0.90167 -1.43163 
-0.55499 -1.95137 -0.34295 
-0.55463 -1.94936 0.26803 
0.00190 -1.05269 -1.79971 
0.30752 -0.55833 -1.98849 
-0.89900 -1.39642 -1.24398 
-0.30367 -0.55846 -1.98895 
-1.20462 -0.90223 -1.43336 
-1.04932 -1.76229 -0.03813 
-1.39370 -1.20745 -0.93905 
-0.00039 -1.04586 1.73269 
0.29214 -0.52889 1.96639 
-0.89869 -1.39142 1.16625 
-0.31459 -0.55356 1.94201 
-1.20768 -0.89908 1.35329 
-1.39367 -1.20494 0.85996 
-1.76394 0.00118 1.00836 
-1.95146 0.30568 0.51477 
-1.95132 -0.30562 0.51520 
-1.76173 -0.00171 -1.09085 
-1.95095 0.30421 -0.59710 
-1.95073 -0.30695 -0.59655 
-0.00038 1.86988 0.79409 
0.25995 1.76987 0.95582 
0.15993 1.60861 1.21730 
-0.16188 1.60908 1.21691 
-0.26102 1.77039 0.95526 
0.00039 1.87224 -0.87562 
0.26161 1.77257 -1.03659 
0.16215 1.61105 -1.29740 
-0.16056 1.61094 -1.29764 
-0.26053 1.77239 -1.03698 
1.61132 1.25698 0.12277 
1.61211 1.25709 -0.19984 
1.87287 0.83511 -0.03794 
1.77242 0.99622 0.22283 
1.77372 0.99628 -0.29917 
1.87326 -0.83409 -0.03636 
1.61280 -1.25655 -0.19742 
1.61188 -1.25561 0.12531 
1.77275 -0.99462 0.22483 
1.77429 -0.99590 -0.29732 
0.26263 -1.77457 -1.03327 
0.00153 -1.87409 -0.87207 
0.16303 -1.61359 -1.29441 
-0.15965 -1.61366 -1.29465 
-0.25946 -1.77470 -1.03365 
0.26167 -1.76638 0.95953 
0.00143 -1.86740 0.79792 
0.16191 -1.60402 1.22056 
-0.15976 -1.60492 1.21979 
-0.25912 -1.76755 0.95864 
1.00199 0.26346 1.74054 
1.25604 0.16130 1.57720 
1.25462 -0.15796 1.57899 
0.99877 -0.25602 1.74474 
0.82940 0.00569 1.85745 
-1.01074 0.26123 1.73862 
-1.00969 -0.25929 1.73936 
-0.84094 -0.00024 1.85386 
-1.26460 0.16181 1.57317 
-1.26443 -0.15840 1.57330 
0.99820 0.25949 -1.81111 
1.25921 0.16000 -1.64970 
1.25929 -0.16264 -1.64942 
0.99832 -0.26254 -1.81065 
0.83696 -0.00165 -1.91056 
-0.99497 0.25896 -1.81256 
-0.99482 -0.26302 -1.81210 
-0.83347 -0.00207 -1.91178 
-1.25614 0.15933 -1.65151 
-1.25605 -0.16329 -1.65123 
-1.61193 1.25647 0.11988 
-1.61203 1.25625 -0.20256 
-1.77327 0.99573 0.21960 
-1.77333 0.99526 -0.30211 
-1.87301 0.83420 -0.04122 
-1.61110 -1.25812 -0.20034 
-1.61102 -1.25770 0.12203 
-1.77260 -0.99676 0.22123 
-1.77260 -0.99739 -0.30035 
-1.87242 -0.83587 -0.03979 
-0.00023 2.03017 0.24927 
0.00001 2.03118 -0.33101 
0.28441 2.02522 0.10779 
-0.28480 2.02522 0.10727 
0.28464 2.02577 -0.18897 
-0.28478 2.02567 -0.18946 
0.77958 1.73106 0.73326 
1.24929 1.55314 0.44375 
0.80426 1.82599 0.43029 
0.97872 1.54079 0.89172 
1.04446 1.73491 0.28229 
1.21902 1.44994 0.74343 
0.47937 1.24911 1.51748 
0.77037 0.78670 1.69884 
0.77770 1.21910 1.41473 
0.31844 1.04694 1.70336 
0.92659 0.98222 1.50577 
0.46146 0.80416 1.80462 
-0.48532 1.25080 1.51589 
-0.78107 0.78552 1.69745 
-0.32878 1.04801 1.70193 
-0.78313 1.22123 1.41241 
-0.47725 0.80448 1.80166 
-0.93363 0.98351 1.50363 
-0.78080 1.73194 0.73159 
-1.25045 1.55343 0.44131 
-0.80507 1.82634 0.42870 
-0.98069 1.54214 0.88953 
-1.04522 1.73500 0.28029 
-1.22090 1.45091 0.74091 
0.78198 1.73320 -0.81294 
1.25137 1.55403 -0.52211 
0.80570 1.82743 -0.51009 
1.04566 1.73575 -0.36136 
0.98235 1.54273 -0.97039 
1.22242 1.45115 -0.82170 
0.48422 1.24963 -1.59372 
0.77476 0.77990 -1.77221 
0.78391 1.22044 -1.49070 
0.32325 1.04400 -1.77537 
0.93249 0.98024 -1.58199 
0.47181 0.80380 -1.86662 
-0.48192 1.24932 -1.59443 
-0.77188 0.77945 -1.77334 
-0.32054 1.04380 -1.77584 
-0.78174 1.21993 -1.49184 
-0.46882 0.80353 -1.86731 
-0.93002 0.97966 -1.58334 
-0.78118 1.73269 -0.81414 
-1.25087 1.55326 -0.52412 
-0.80538 1.82696 -0.51140 
-1.04551 1.73520 -0.36309 
-0.98118 1.54207 -0.97187 
-1.22140 1.45034 -0.82357 
2.03221 0.29059 -0.03739 
2.03234 -0.28956 -0.03685 
2.02609 0.14905 0.24747 
2.02764 0.14859 -0.32206 
2.02612 -0.14751 0.24776 
2.02772 -0.14816 -0.32180 
1.73119 0.77302 0.74317 
1.55090 0.48317 1.21276 
1.54009 0.93048 0.94285 
1.44798 0.78247 1.18295 
1.82541 0.47056 0.76751 
1.73306 0.32232 1.00753 
1.73506 0.77281 -0.81946 
1.55617 0.48209 -1.28882 
1.54470 0.93044 -1.01981 
1.45320 0.78179 -1.25980 
1.82948 0.46988 -0.84322 
1.73803 0.32121 -1.08325 
1.25228 -1.55443 -0.51915 
0.78299 -1.73448 -0.80967 
1.04673 -1.73588 -0.35798 
1.22325 -1.45222 -0.81901 
0.80683 -1.82805 -0.50657 
0.98321 -1.54422 -0.96753 
1.24997 -1.55084 0.44722 
0.78073 -1.72793 0.73719 
1.04549 -1.73323 0.28598 
1.21933 -1.44659 0.74709 
0.80549 -1.82399 0.43421 
0.97930 -1.53683 0.89570 
1.73081 -0.77049 0.74514 
1.54961 -0.48051 1.21495 
1.82509 -0.46835 0.76870 
1.73255 -0.32020 1.00856 
1.53930 -0.92722 0.94571 
1.44644 -0.77881 1.18625 
1.73552 -0.77360 -0.81809 
1.55643 -0.48391 -1.28798 
1.82976 -0.47066 -0.84239 
1.73821 -0.32252 -1.08269 
1.54522 -0.93175 -1.01815 
1.45362 -0.78360 -1.25842 
0.00144 -2.03199 -0.32703 
0.00144 -2.02958 0.25342 
0.28607 -2.02603 -0.18494 
0.28595 -2.02473 0.11191 
-0.28325 -2.02644 -0.18546 
-0.28314 -2.02531 0.11132 
0.48484 -1.25254 -1.59146 
0.77513 -0.78299 -1.77082 
0.78452 -1.22301 -1.48849 
0.93297 -0.98291 -1.58024 
0.32375 -1.04731 -1.77350 
0.47219 -0.80720 -1.86519 
-0.48123 -1.25273 -1.59215 
-0.77146 -0.78332 -1.77195 
-0.31999 -1.04744 -1.77397 
-0.78103 -1.22335 -1.48962 
-0.46840 -0.80740 -1.86589 
-0.92944 -0.98332 -1.58158 
-0.78001 -1.73498 -0.81088 
-1.24973 -1.55544 -0.52126 
-0.80406 -1.82877 -0.50793 
-0.98015 -1.54476 -0.96901 
-1.04421 -1.73695 -0.35985 
-1.22039 -1.45296 -0.82090 
0.48119 -1.24181 1.52218 
0.76772 -0.77598 1.70799 
0.77768 -1.21205 1.42017 
0.92480 -0.97456 1.51234 
0.32190 -1.03806 1.70904 
0.46138 -0.79006 1.81599 
-0.48340 -1.24691 1.51614 
-0.78055 -0.78219 1.69697 
-0.32624 -1.04465 1.70139 
-0.78216 -1.21794 1.41241 
-0.47628 -0.80281 1.79996 
-0.93330 -0.98003 1.50317 
-0.77914 -1.73078 0.73458 
-1.24922 -1.55367 0.44391 
-0.80344 -1.82617 0.43211 
-1.04376 -1.73548 0.28345 
-0.97934 -1.54068 0.89166 
-1.21979 -1.45020 0.74297 
0.39776 -0.16877 2.15983 
-0.15621 -0.23562 2.30508 
0.38756 0.08115 2.19893 
0.17488 0.19233 2.35646 
0.02789 -0.44267 2.15431 
-0.24007 -0.39163 2.10227 
-1.55648 0.48464 1.20875 
-1.73394 0.77359 0.73952 
-1.45277 0.78412 1.17959 
-1.54346 0.93173 0.93953 
-1.73769 0.32315 1.00315 
-1.82858 0.47091 0.76342 
-1.55662 -0.48160 1.20872 
[...]
CELL_DATA 1951
SCALARS Strain double 
LOOKUP_TABLE default 
-0.08655
-0.08922
-0.08743
-0.08748
-0.08877
-0.08795
-0.08733
-0.08765
-0.08767
-0.08735
-0.08789
-0.08773
-0.08795
-0.08755
-0.08758
-0.08809
-0.08770
-0.08785
-0.08722
-0.08747
-0.08733
-0.08780
-0.08766
-0.08757
-0.08748
-0.09000
-0.08605
-0.08598
-0.08818
-0.08853
-0.10070
-0.07221
-0.07345
-0.10148
-0.06707
-0.09977
-0.09716
-0.06808
-0.07335
-0.07587
-0.08746
-0.08753
-0.08754
-0.08745
-0.08751
-0.08752
-0.08753
-0.08753
-0.08762
-0.08757
-0.08762
-0.08794
-0.08828
-0.08782
-0.08777
-0.08788
-0.08773
-0.08839
-0.08798
-0.08757
-0.03418
-0.03442
0.06934
0.06890
0.06902
0.06940
-0.03552
-0.03495
0.06872
0.07118
0.07035
0.06782
-0.03399
-0.04971
0.07920
0.06037
0.08033
0.08895
-0.02898
-0.03899
0.05793
0.07406
0.08022
0.07301
-0.03455
-0.03417
0.06831
0.06976
0.06944
0.06778
-0.03389
-0.03397
0.06934
0.06925
0.06918
0.06944
-0.03407
-0.03403
0.06931
0.06979
0.06975
0.06939
-0.03414
-0.03411
0.06978
0.06928
0.06937
0.06974
-0.03400
-0.03411
0.06943
0.06902
0.06902
0.06944
-0.03453
-0.03456
0.06946
0.06939
0.06954
0.06950
-0.03395
-0.03396
0.06803
0.06936
0.06932
0.06797
-0.03418
-0.03418
0.06965
0.06954
0.06945
0.06970
-0.03389
-0.03382
0.06947
0.06937
0.06924
0.06933
-0.03542
-0.03639
0.07158
0.06773
0.06901
0.07333
-0.03308
-0.03310
0.07137
0.06626
0.06581
0.07190
-0.03423
-0.03422
0.06957
0.06970
0.06964
0.06963
-0.03415
-0.03387
0.06875
0.06946
0.06954
0.06856
-0.03408
-0.03404
0.06938
0.06976
0.06977
0.06944
-0.03408
-0.03407
0.06969
0.06933
0.06940
0.06963
-0.03425
-0.03434
0.06963
0.06914
0.06910
0.06960
-0.02749
-0.04968
0.08882
0.07519
0.04801
0.10598
-0.03071
-0.03736
0.06374
0.07116
0.07603
0.07393
-0.03425
-0.03408
0.06811
0.06897
0.06898
0.06801
-0.01419
-0.04087
-0.05284
-0.05825
0.13805
-0.20680
-0.03679
-0.03646
0.06952
0.06895
0.06936
0.06970
-0.03617
-0.03618
0.06770
0.07034
0.07038
0.06784
-0.03399
-0.03399
0.06953
0.06952
0.06953
0.06953
-0.03437
-0.03442
0.06946
0.06954
0.06959
0.06932
-0.03429
-0.03434
0.06934
0.06959
0.06961
0.06922
-0.03401
-0.03396
0.06890
0.06841
0.06871
0.06891
-0.06493
-0.04468
0.07921
0.07849
0.03291
0.03362
-0.06736
-0.04657
0.07903
0.08166
0.03520
0.03297
-0.06618
-0.04693
0.08249
0.07705
0.03237
0.03734
-0.06553
-0.04473
0.07723
0.08097
0.03437
0.03267
-0.06651
-0.04555
0.07836
0.08076
0.03457
0.03259
-0.06606
-0.04538
0.07979
0.07990
0.03426
0.03410
-0.06533
-0.04468
0.07980
0.07940
0.03372
0.03413
-0.06565
-0.04494
0.07949
0.08019
0.03448
0.03395
-0.06570
-0.04501
0.08018
0.07948
0.03397
0.03447
-0.06539
-0.04476
0.07984
0.07936
0.03364
0.03410
-0.06608
-0.04557
0.08000
0.07895
0.03358
0.03454
-0.06568
-0.04491
0.07976
0.07959
0.03382
0.03398
-0.06603
-0.04536
0.07977
0.07967
0.03408
0.03413
-0.06550
-0.04477
0.07877
0.07966
0.03382
0.03302
-0.06564
-0.04500
0.07968
0.07968
0.03413
0.03412
-0.06616
-0.04545
0.07998
0.07985
0.03420
0.03413
-0.06562
-0.04482
0.08010
0.07951
0.03372
0.03413
-0.06605
-0.04570
0.08070
0.07852
0.03351
0.03579
-0.06496
-0.04404
0.08021
0.07806
0.03237
0.03453
-0.06563
-0.04503
0.07985
0.07963
0.03409
0.03425
-0.06532
-0.04464
0.07970
0.07956
0.03391
0.03407
-0.06586
-0.04514
0.07963
0.07999
0.03432
0.03389
-0.06566
-0.04496
0.07962
0.08012
0.03446
0.03405
-0.06560
-0.04492
0.08007
0.07956
0.03399
0.03432
-0.06557
-0.04499
0.07996
0.07950
0.03382
0.03424
-0.06837
-0.04765
0.07966
0.08283
0.03615
0.03415
-0.06448
-0.04431
0.07949
0.07796
0.03244
0.03378
-0.06330
-0.04195
0.08336
0.07525
0.02872
0.03645
-0.06723
-0.04785
0.07822
0.08189
0.03706
0.03522
-0.06610
-0.04507
0.07775
0.08102
0.03460
0.03184
-0.05219
-0.03787
0.08097
0.06188
0.02707
0.03690
-0.06312
-0.04445
0.07741
0.07821
0.03531
0.03366
-0.06306
-0.04378
0.07624
0.08210
0.03756
0.03124
-0.05737
-0.04437
0.08517
0.07185
0.03678
0.04142
-0.01925
0.00892
0.13594
0.15619
0.02598
0.02657
-0.05547
-0.03399
0.07776
0.07437
0.02391
0.03046
-0.05805
-0.03597
0.07911
0.07686
0.03075
0.03034
-0.01830
0.14774
0.13646
0.02660
0.02602
-0.06400
-0.04685
0.07545
0.07968
0.03636
0.03327
-0.06335
-0.04598
0.07552
0.07949
0.03717
0.03195
-0.06548
-0.04484
0.07990
0.07980
0.03407
0.03428
-0.06561
-0.04499
0.07984
0.08001
0.03432
0.03412
-0.06563
-0.04502
0.08001
0.07988
0.03418
0.03432
-0.06548
-0.04484
0.07992
0.07981
0.03408
0.03428
-0.06550
-0.04482
0.07986
0.07985
0.03419
0.03420
-0.06556
-0.04492
0.07973
0.07989
0.03426
0.03400
-0.06556
-0.04490
0.07977
0.07982
0.03421
0.03405
-0.06553
-0.04484
0.07979
0.07981
0.03416
0.03415
-0.06573
-0.04514
0.07982
0.07988
0.03420
0.03408
-0.06567
-0.04506
0.07974
0.07988
0.03421
0.03399
-0.06562
-0.04494
0.07929
0.07891
0.03335
0.03342
-0.06587
-0.04507
0.07934
0.07968
0.03401
0.03370
-0.06676
-0.04667
0.07904
0.07996
0.03443
0.03368
-0.06591
-0.04527
0.07973
0.07932
0.03393
0.03414
-0.06573
-0.04495
0.07965
0.07901
0.03294
0.03376
-0.06593
-0.04524
0.07917
0.07982
0.03419
0.03370
-0.06573
-0.04498
0.07891
0.07937
0.03343
0.03289
-0.06685
-0.04663
0.07979
0.07911
0.03349
0.03436
-0.06596
-0.04523
0.07982
0.07930
0.03383
0.03420
-0.06553
-0.04480
0.07912
0.07910
0.03319
0.03354
0.07175
0.07158
0.01937
0.02096
0.01736
0.01636
0.07124
0.07105
0.02008
0.02053
0.01709
0.01701
0.07164
0.07175
0.02055
0.02009
0.01708
0.01731
0.07195
0.07195
0.02034
0.01997
0.01690
0.01705
0.07494
0.07714
0.01867
0.01824
0.01780
0.01225
0.07231
0.07195
0.02014
0.01998
0.01656
0.01719
0.06998
0.07011
0.02095
0.02022
0.01733
0.01755
0.07856
0.07823
0.02410
0.01881
0.01206
0.02005
0.07522
0.07310
0.01765
0.01964
0.01438
0.01663
0.11213
-0.24875
0.09554
0.02590
0.05558
0.02594
0.07395
0.07282
0.01852
0.01913
0.01437
0.01770
0.09734
0.10646
0.05657
0.02582
0.07039
0.02576
0.07194
0.07203
0.01725
0.02141
0.01654
0.01492
0.07174
0.07160
0.01987
0.02031
0.01707
0.01691
0.07029
0.07073
0.01939
0.02085
0.01771
0.01567
0.07169
0.07174
0.02048
0.02075
0.01751
0.01736
0.07203
0.07210
0.02025
0.02054
0.01745
0.01707
0.07232
0.07232
0.02034
0.02036
0.01724
0.01722
0.07220
0.07213
0.02032
0.02061
0.01740
0.01709
0.07197
0.07202
0.02062
0.02049
0.01728
0.01746
0.07169
0.07160
0.02072
0.02041
0.01725
0.01747
0.07194
0.07199
0.02061
0.02046
0.01726
0.01746
0.07218
0.07209
0.02024
0.02049
0.01728
0.01699
0.07196
0.07200
0.02005
0.02042
0.01737
0.01692
0.07188
0.07178
0.02050
0.01935
0.01615
0.01752
0.07186
0.07189
0.02044
0.02048
0.01733
0.01726
0.07237
0.07298
0.02042
0.01892
0.01600
0.01700
0.07202
0.07204
0.02034
0.02047
0.01732
0.01714
0.07056
0.06995
0.01948
0.02196
0.01793
0.01662
0.07224
0.07224
0.02038
0.02046
0.01726
0.01716
0.07234
0.07300
0.01979
0.02023
0.01731
0.01627
0.07198
0.07207
0.02032
0.02064
0.01752
0.01711
0.07160
0.07143
0.02033
0.02062
0.01741
0.01739
0.07181
0.07183
0.02044
0.02077
0.01757
0.01733
0.06898
0.06820
0.02308
0.02082
0.01725
0.02101
0.07184
0.07192
0.02162
0.01894
0.01598
0.01782
0.07858
0.08309
0.01992
0.01489
0.01623
0.01192
0.07515
0.07523
0.01531
0.02510
0.02189
0.01139
0.07219
0.07223
0.02061
0.02035
0.01713
0.01738
0.07212
0.07215
0.02007
0.02015
0.01704
0.01675
0.07086
0.07068
0.02028
0.02056
0.01717
0.01725
0.07227
0.07224
0.02041
0.02037
0.01725
0.01727
0.07199
0.07203
0.02061
0.02050
0.01729
0.01744
0.07177
0.07171
0.02055
0.02053
0.01734
0.01729
0.07196
0.07200
0.02057
0.02047
0.01729
0.01742
0.07206
0.07196
0.02030
0.02052
0.01734
0.01707
0.07156
0.07152
0.02053
0.01971
0.01663
0.01732
0.07209
0.07208
0.02011
0.02027
0.01720
0.01701
0.07319
0.08685
0.01952
0.02533
0.02886
0.00728
0.14758
0.11395
0.08977
0.02597
0.09981
0.02649
0.07206
0.07161
0.01989
0.01884
0.01522
0.01779
0.09334
-0.20419
0.05887
0.02616
0.06022
0.02616
0.07224
0.07087
0.01668
0.02283
0.01770
0.01415
0.07107
0.07203
0.01870
0.02001
0.01723
0.01487
0.07264
0.07304
0.01930
0.01746
0.01435
0.01587
0.07184
0.07153
0.02037
0.01871
0.01489
0.01753
0.07035
0.07058
0.02085
0.01926
0.01589
0.01770
0.07213
0.07213
0.02031
0.02022
0.01696
0.01704
0.07166
0.07146
0.02052
0.02004
0.01689
0.01739
0.07160
0.07149
0.02056
0.01999
0.01693
0.01740
0.07032
0.06972
-0.00730
-0.00658
0.07267
-0.00465
-0.00645
0.06844
-0.00798
-0.00414
0.07231
-0.00522
-0.00743
-0.00496
-0.00681
0.07110
0.07113
-0.00556
-0.00563
0.07069
-0.00619
-0.00578
0.07141
-0.00543
-0.00594
0.07069
-0.00592
-0.00544
-0.00622
-0.00581
0.07110
0.07046
-0.00610
-0.00558
0.07073
-0.00612
-0.00583
0.07094
0.07092
-0.00578
-0.00577
-0.00612
-0.00649
-0.00582
-0.00597
0.07115
0.07109
-0.00553
-0.00572
0.07149
0.07065
-0.00618
-0.00569
0.07017
-0.00614
-0.00488
-0.00681
-0.00587
-0.00604
-0.00571
0.07100
0.07085
-0.00601
-0.00582
0.07121
-0.00553
-0.00580
0.07132
-0.00545
-0.00583
0.07079
-0.00590
-0.00559
-0.00604
-0.00569
0.07093
0.07301
-0.00396
-0.00496
0.06904
-0.00794
-0.00637
0.06798
-0.00960
-0.00517
0.07336
-0.00276
-0.00660
-0.00456
-0.00779
0.05858
0.10061
-0.01245
-0.03209
0.06001
0.00008
-0.00729
0.06317
-0.00342
-0.00398
0.10056
-0.00805
-0.02629
-0.03580
-0.03722
0.10352
0.05880
-0.02966
-0.00692
0.09456
0.06369
-0.01865
-0.00616
-0.03434
-0.02954
0.06312
-0.00101
-0.00742
-0.00185
-0.00629
0.07109
0.07111
-0.00576
-0.00567
0.07121
-0.00560
-0.00575
0.07111
-0.00572
-0.00560
0.07110
-0.00576
-0.00567
-0.00567
-0.00567
0.07102
0.07107
-0.00569
-0.00585
0.07105
0.07102
-0.00572
-0.00580
-0.00573
-0.00574
0.07110
-0.00570
-0.00579
-0.00571
-0.00585
0.07054
0.07049
-0.00631
-0.00656
0.07091
-0.00587
-0.00614
0.07101
-0.00566
-0.00612
0.07038
-0.00608
-0.00584
-0.00678
-0.00604
0.07028
0.07101
-0.00579
-0.00623
0.07089
-0.00620
-0.00687
0.07060
-0.00611
-0.00571
0.07041
-0.00611
-0.00572
-0.00672
-0.00624
0.05545
0.05601
0.07687
0.07625
0.05630
0.05602
0.07704
0.07726
-0.01476
-0.01583
0.04893
-0.01486
-0.01599
0.04943
-0.01635
0.04957
-0.01642
0.04923
0.05727
0.05497
0.07644
0.07896
0.05549
0.05710
0.07767
0.07602
-0.01568
-0.01731
0.05004
-0.01517
-0.01767
0.04662
-0.01672
0.04926
-0.01651
0.05068
0.05229
0.05682
0.07986
0.07685
0.04942
0.08560
0.08249
0.05140
-0.02314
-0.01770
0.05304
-0.00593
-0.01859
0.04010
-0.01700
0.04871
-0.04853
0.02783
0.05115
0.05132
0.07651
0.07661
0.06824
0.05010
0.05987
0.07483
0.00318
-0.01350
0.03075
-0.01800
-0.01567
0.05074
-0.02794
0.02564
-0.01343
0.04721
0.05641
0.05475
0.07586
0.07766
0.05522
0.05586
0.07685
0.07595
-0.01491
-0.01642
0.04950
-0.01449
-0.01680
0.04725
-0.01614
0.04888
-0.01581
0.04901
0.05594
0.05627
0.07716
0.07685
0.05606
0.05605
0.07709
0.07711
-0.01451
-0.01584
0.04940
-0.01603
0.04923
-0.01440
-0.01574
0.04967
-0.01588
0.04936
0.05660
0.05614
0.07698
0.07758
0.05616
0.05650
0.07741
0.07717
-0.01452
-0.01596
0.04988
-0.01459
-0.01603
0.04954
-0.01588
0.04943
-0.01595
0.04986
0.05614
0.05659
0.07758
0.07697
0.05650
0.05612
0.07713
0.07739
-0.01464
-0.01607
0.04954
-0.01462
-0.01605
0.04986
-0.01600
0.04986
-0.01599
0.04937
0.05580
0.05625
0.07722
0.07676
0.05619
0.05583
0.07677
0.07714
-0.01470
-0.01599
0.04918
-0.01624
0.04950
-0.01448
-0.01579
0.04959
-0.01599
0.04921
0.05626
0.05629
0.07720
0.07710
0.05627
0.05623
0.07736
0.07725
-0.01541
-0.01677
0.04980
-0.01475
-0.01615
0.04962
-0.01689
0.04948
-0.01617
0.04949
0.05609
0.05487
0.07582
0.07708
0.05547
0.05603
0.07674
0.07580
-0.01492
-0.01585
0.04992
-0.01741
0.04772
-0.01447
-0.01591
0.04827
-0.01578
0.04913
0.05631
0.05642
0.07728
0.07715
0.05649
0.05626
0.07727
0.07746
-0.01475
-0.01614
0.04974
-0.01612
0.04978
-0.01465
-0.01604
0.04979
-0.01604
0.04953
0.05594
0.05620
0.07736
0.07703
0.05614
0.05621
0.07706
0.07701
-0.01442
-0.01594
0.04906
-0.01433
-0.01579
0.04946
-0.01577
0.04968
-0.01569
0.04962
0.05553
0.05894
0.07869
0.07559
0.05844
0.05554
0.07696
0.08083
-0.01617
-0.01701
0.04944
-0.01602
-0.01664
0.05387
-0.01793
0.05076
-0.01936
0.04639
0.05373
0.05758
0.07824
0.07447
0.05910
0.05226
0.07366
0.08045
-0.01484
-0.01585
0.04766
-0.01692
0.05104
-0.01228
-0.01403
0.05116
-0.01382
0.04467
0.05641
0.05643
0.07730
0.07726
0.05635
0.05648
0.07746
0.07734
-0.01474
-0.01613
0.04979
-0.01610
0.04965
-0.01475
-0.01614
0.04982
-0.01612
0.04976
0.05639
0.05575
0.07683
0.07737
0.05510
0.05616
0.07703
0.07583
-0.01443
-0.01609
0.04968
-0.01540
0.04863
-0.01465
-0.01620
0.04890
-0.01577
0.04962
0.05660
0.05621
0.07708
0.07754
0.05620
0.05650
0.07742
0.07720
-0.01454
-0.01598
0.04991
-0.01589
0.04948
-0.01459
-0.01603
0.04959
-0.01595
0.04984
0.05616
0.05646
0.07747
0.07702
0.05642
0.05616
0.07716
0.07731
-0.01460
-0.01601
0.04955
-0.01456
-0.01596
0.04971
-0.01598
0.04980
-0.01595
0.04943
0.05594
0.05641
0.07738
0.07690
0.05639
0.05590
0.07673
0.07730
-0.01496
-0.01625
0.04927
-0.01469
-0.01600
0.04971
-0.01646
0.04973
-0.01617
0.04931
0.04567
0.05935
0.08312
0.07128
0.06236
0.07943
0.08308
0.07134
-0.02333
-0.01488
0.05007
-0.02138
0.05712
0.00919
-0.00920
0.03915
-0.04998
0.00571
0.04950
0.05438
0.08163
0.07542
0.06868
0.05007
0.06356
0.07718
-0.00004
-0.01992
0.02858
-0.01688
-0.01637
0.05116
-0.02491
0.03476
-0.01295
0.04619
0.05608
0.05457
0.07541
0.07712
0.05520
0.05517
0.07640
0.07635
-0.01466
-0.01613
0.04935
-0.01596
0.04863
-0.01447
-0.01623
0.04777
-0.01607
0.04807
-0.15949
-0.17433
-0.04401
-0.21968
-0.14359
-0.10600
-0.05614
0.32716
-0.13622
-0.16555
-0.03214
0.13077
0.05667
0.05612
0.07599
0.07746
0.05666
0.05589
0.07640
0.07750
-0.01710
-0.01906
0.04890
-0.01781
0.05010
-0.01754
-0.01932
0.04911
-0.01823
0.04981
0.05806
0.05411
0.07445
0.07818
0.05518
0.05682
0.07751
0.07613
-0.01729
-0.01897
0.05046
-0.01814
0.04889
-0.01660
-0.01805
0.04724
-0.01769
0.05034
0.05633
0.05634
0.07727
0.07727
0.05632
0.05632
0.07723
0.07725
-0.01447
-0.01587
0.04964
-0.01587
0.04964
-0.01448
-0.01588
0.04964
-0.01589
0.04965
0.05636
0.05619
0.07723
0.07733
0.05618
0.05636
0.07723
0.07692
-0.01491
-0.01624
0.04965
-0.01635
0.04966
-0.01493
-0.01626
0.04940
-0.01636
0.04973
0.05638
0.05609
0.07713
0.07734
0.05607
0.05639
0.07729
0.07685
-0.01483
-0.01616
0.04970
-0.01628
0.04952
-0.01485
-0.01617
0.04931
-0.01632
0.04975
0.05509
0.05581
0.07687
0.07641
0.05548
0.05559
0.07633
0.07656
-0.01440
-0.01594
0.04795
-0.01576
0.04874
-0.01449
-0.01593
0.04915
-0.01588
0.04911
-0.01660
-0.01866
-0.01684
-0.01779
0.08506
0.08440
-0.01900
-0.01875
0.08801
-0.01784
-0.01520
0.08408
-0.01834
-0.01815
0.08604
-0.01764
-0.01700
-0.01769
-0.01712
0.08544
0.08559
-0.01690
-0.01720
0.08523
-0.01728
-0.01732
0.08593
-0.01727
-0.01693
0.08519
-0.01771
-0.01738
-0.01768
-0.01695
0.08566
0.08414
-0.01717
-0.01732
0.08554
-0.01796
-0.01717
-0.01738
-0.01723
0.08548
0.08543
-0.01821
-0.01693
-0.01742
-0.01728
0.08608
0.08560
-0.01733
-0.01784
-0.01708
-0.01728
0.08621
0.08549
-0.01747
-0.01579
0.08311
-0.01696
-0.01742
-0.01688
-0.01723
0.08529
0.08536
-0.01748
-0.01734
0.08574
-0.01728
-0.01723
0.08586
-0.01716
-0.01712
0.08529
-0.01931
-0.01604
-0.02101
-0.01626
0.08535
0.09071
-0.01658
-0.01755
0.08393
-0.01289
-0.01834
0.08418
-0.01983
-0.01705
0.08523
-0.01465
-0.02059
0.03507
-0.09198
0.08744
-0.00805
-0.01669
-0.01901
0.08411
-0.01612
-0.02017
0.09035
0.02743
-0.09305
0.02149
0.02542
-0.08434
-0.01297
-0.02019
0.03004
0.08399
0.01348
-0.06310
-0.01242
-0.01975
0.04298
0.08382
-0.02003
-0.01900
0.08660
-0.01706
-0.01727
-0.01713
-0.01709
0.08568
0.08557
-0.01721
-0.01726
0.08580
-0.01727
-0.01706
0.08572
-0.01712
-0.01709
0.08558
-0.01718
-0.01710
-0.01716
-0.01737
0.08552
0.08566
-0.01717
-0.01712
-0.01715
-0.01731
0.08555
0.08556
-0.01738
-0.01730
0.08568
-0.01731
-0.01760
-0.01703
-0.01842
0.08515
0.08435
-0.01734
-0.01757
0.08551
-0.01875
-0.01736
0.08549
-0.01755
-0.01721
0.08502
-0.01769
-0.01719
-0.01746
-0.01755
0.08493
0.08562
-0.01746
-0.01878
0.08524
-0.01851
-0.01702
0.08451
-0.01760
-0.01712
0.08503
0.04821
0.04782
0.04838
0.04781
0.04822
0.04804
0.04916
0.04560
0.04963
0.09130
-0.00256
-0.01690
0.04726
0.04886
0.04662
0.04812
0.04847
0.04855
0.04861
0.04834
0.04833
0.04802
0.04852
0.04835
0.04803
0.04897
0.04685
0.04823
0.04837
0.04854
0.04883
0.04758
0.04836
0.04844
0.04819
0.04861
0.04374
0.05447
0.04960
0.04845
0.04748
0.04804
0.04857
0.04837
0.04835
0.04811
0.04836
0.04844
0.10103
-0.02369
-0.01354
0.04614
0.04842
0.04774
0.04898
0.04756
0.04622
0.04849
0.04801
0.04796
-0.19046
-0.08565
0.08491
0.11335
-0.04692
-0.19568
0.04724
-0.07803
-0.04383
-0.21776
-0.10454
-0.00135
-0.19016
0.01348
0.35957
-0.00024
-0.05627
-0.14281
0.09387
0.01526
0.02213
-0.10623
0.08773
0.01850
0.02916
0.09541
0.02612
-0.09845
0.02027
-0.24109
-0.11046
-0.04690
0.40174
-0.21106
-0.19522
-0.09798
-0.06393
0.10000
