# vtk DataFile Version 3.0
Point representing Sub_cellular elem model
ASCII

DATASET UNSTRUCTURED_GRID
POINTS 364 float
-0.65717 -0.02364 1.95980 
-0.83899 -0.12863 2.03841 
-0.85590 0.01029 2.03483 
-0.82241 0.21161 2.04536 
-0.78872 -0.32098 1.88708 
-0.83430 -0.14743 1.89491 
-0.75089 -0.14940 1.91401 
-0.64499 -0.21258 2.02356 
-0.77594 -0.10627 2.00891 
-0.81595 -0.03662 2.02648 
-0.79213 0.07369 2.02463 
-0.83078 0.11649 2.03512 
-0.76360 0.25834 2.03684 
-0.80132 0.31939 2.05484 
-0.75646 0.40995 2.05923 
-0.67488 -0.49685 1.88424 
-0.72948 -0.42134 1.89167 
-0.69846 -0.35201 1.90914 
-0.75249 -0.26404 1.92154 
-0.67356 -0.21908 1.94435 
-0.69330 -0.12798 2.00442 
-0.66900 -0.03600 1.99492 
-0.73625 0.01565 2.02702 
-0.69658 0.10343 2.01969 
-0.75456 0.16826 2.04036 
-0.68733 0.25477 2.04265 
-0.72881 0.33686 2.06039 
-0.68544 0.41555 2.05860 
-0.72175 0.48652 2.07233 
-0.67279 0.56832 2.07555 
-0.58928 -0.64511 1.86960 
-0.62000 -0.57898 1.87694 
-0.60260 -0.51940 1.90299 
-0.64705 -0.43693 1.90421 
-0.60858 -0.37100 1.93798 
-0.64948 -0.29030 1.93917 
-0.57855 -0.22614 1.97880 
-0.59227 -0.12989 1.97654 
-0.56809 -0.04558 2.01389 
-0.63893 0.03152 2.00959 
-0.59934 0.10600 2.03136 
-0.65047 0.17914 2.02841 
-0.60425 0.25815 2.05050 
-0.63886 0.34059 2.04608 
-0.59762 0.41835 2.07027 
-0.64229 0.49438 2.06564 
-0.59717 0.57040 2.08720 
-0.51085 -0.66145 1.87321 
-0.55344 -0.59223 1.88106 
-0.51107 -0.52479 1.90728 
-0.55725 -0.44531 1.91330 
-0.50807 -0.37652 1.94281 
-0.54483 -0.30059 1.94820 
-0.48600 -0.22174 1.97303 
-0.52920 -0.13656 1.98648 
-0.47846 -0.04950 2.00057 
-0.53634 0.03731 2.00616 
-0.50092 0.11011 2.02355 
-0.55531 0.18664 2.02674 
-0.50912 0.26442 2.04080 
-0.55697 0.34046 2.04622 
-0.50539 0.42419 2.05991 
-0.55145 0.49983 2.06455 
-0.50772 0.59290 2.07824 
-0.58775 0.64433 2.08433 
-0.52259 0.68135 2.08977 
-0.47235 -0.72621 1.86629 
-0.42844 -0.68047 1.87490 
-0.46643 -0.60636 1.90230 
-0.41945 -0.53066 1.90838 
-0.46502 -0.45570 1.93888 
-0.41130 -0.37908 1.94316 
-0.45217 -0.30480 1.97344 
-0.40614 -0.22034 1.97550 
-0.44422 -0.14001 2.00359 
-0.40335 -0.05435 2.00125 
-0.44393 0.02972 2.02733 
-0.40611 0.11147 2.01954 
-0.45992 0.18617 2.04362 
-0.41643 0.26747 2.03759 
-0.46325 0.34351 2.06144 
-0.41801 0.42614 2.05635 
-0.45873 0.50605 2.08165 
-0.41572 0.59182 2.07562 
-0.45370 0.66743 2.09747 
-0.43291 0.73622 2.09554 
-0.34416 -0.78220 1.86433 
-0.40778 -0.73013 1.86823 
-0.33750 -0.69702 1.88993 
-0.37748 -0.61268 1.90178 
-0.32633 -0.53966 1.92938 
-0.37021 -0.45926 1.93826 
-0.31870 -0.38436 1.96411 
-0.36165 -0.30245 1.96936 
-0.31419 -0.22420 1.99473 
-0.35614 -0.13986 1.99587 
-0.31192 -0.05976 2.01890 
-0.35575 0.02617 2.01791 
-0.31367 0.10472 2.03940 
-0.36557 0.18723 2.03816 
-0.32237 0.26392 2.05573 
-0.37090 0.34512 2.05479 
-0.32471 0.42355 2.07282 
-0.36970 0.50735 2.07289 
-0.32200 0.58819 2.09090 
-0.36481 0.68028 2.09043 
-0.30058 0.75384 2.10650 
-0.36761 0.76971 2.09936 
-0.23785 -0.82778 1.86123 
-0.27132 -0.75881 1.86417 
-0.23182 -0.68879 1.89788 
-0.28574 -0.61487 1.89857 
-0.23580 -0.54166 1.92953 
-0.27722 -0.45988 1.93274 
-0.22947 -0.38384 1.96116 
-0.27301 -0.30144 1.96460 
-0.22630 -0.22347 1.98972 
-0.27137 -0.14021 1.99216 
-0.22482 -0.06081 2.01294 
-0.27064 0.02356 2.01366 
-0.22575 0.10228 2.03374 
-0.27318 0.18647 2.03247 
-0.23051 0.26343 2.05154 
-0.27913 0.34539 2.04842 
-0.23455 0.42239 2.06776 
-0.28181 0.50626 2.06565 
-0.23500 0.58376 2.08446 
-0.27698 0.67233 2.08392 
-0.21717 0.76217 2.10233 
-0.27335 0.82012 2.10414 
-0.14234 -0.83344 1.86018 
-0.18384 -0.77024 1.88379 
-0.13682 -0.69570 1.88684 
-0.18994 -0.62195 1.91626 
-0.14265 -0.54176 1.92059 
-0.18452 -0.46574 1.95086 
-0.13838 -0.38347 1.95176 
-0.18032 -0.30627 1.98210 
-0.13695 -0.22293 1.98038 
-0.17870 -0.14453 2.00924 
-0.13620 -0.06132 2.00428 
-0.17810 0.01840 2.03111 
-0.13617 0.10094 2.02407 
-0.18021 0.18040 2.05000 
-0.13798 0.26169 2.04236 
-0.18531 0.33927 2.06624 
-0.14178 0.41964 2.05851 
-0.18807 0.49730 2.08237 
-0.14354 0.57632 2.07333 
-0.18389 0.65788 2.09878 
-0.13289 0.73326 2.08654 
-0.18217 0.84921 2.10667 
-0.06831 -0.82618 1.87314 
-0.09616 -0.76990 1.87907 
-0.04638 -0.70270 1.90142 
-0.09577 -0.62126 1.91859 
-0.04953 -0.54551 1.93631 
-0.09519 -0.46561 1.95021 
-0.04569 -0.38712 1.96739 
-0.09300 -0.30558 1.97912 
-0.04415 -0.22609 1.99533 
-0.09192 -0.14421 2.00477 
-0.04340 -0.06432 2.01993 
-0.09143 0.01777 2.02654 
-0.04327 0.09766 2.04002 
-0.09213 0.17930 2.04636 
-0.04468 0.25852 2.05838 
-0.09435 0.33917 2.06408 
-0.04754 0.41760 2.07417 
-0.09649 0.49627 2.07970 
-0.04931 0.57593 2.08872 
-0.09432 0.65111 2.09582 
-0.04303 0.74150 2.10334 
-0.10626 0.81550 2.11102 
-0.06736 0.87561 2.11056 
-0.00627 -0.83537 1.86329 
0.05576 -0.82763 1.87399 
-0.00581 -0.78184 1.87404 
0.03553 -0.70321 1.90272 
-0.00427 -0.62101 1.90575 
0.04252 -0.54527 1.93636 
-0.00255 -0.46416 1.93785 
0.04199 -0.38632 1.96649 
-0.00170 -0.30409 1.96673 
0.04256 -0.22545 1.99334 
-0.00100 -0.14292 1.99222 
0.04321 -0.06419 2.01755 
-0.00044 0.01840 2.01458 
0.04366 0.09723 2.03792 
-0.00033 0.17971 2.03361 
0.04362 0.25802 2.05667 
-0.00129 0.33977 2.05124 
0.04302 0.41764 2.07342 
-0.00308 0.49830 2.06594 
0.04202 0.57630 2.08738 
-0.00428 0.65767 2.07997 
0.03400 0.74183 2.10236 
-0.00496 0.82603 2.09743 
0.05739 0.87606 2.10899 
0.12992 -0.83566 1.86370 
0.08436 -0.77091 1.88095 
0.12616 -0.69718 1.88953 
0.08692 -0.62158 1.92010 
0.13566 -0.54163 1.92203 
0.09017 -0.46523 1.95091 
0.13442 -0.38235 1.95160 
0.09073 -0.30516 1.97956 
0.13465 -0.22204 1.97801 
0.09148 -0.14421 2.00530 
0.13534 -0.06138 2.00189 
0.09212 0.01713 2.02741 
0.13608 0.09943 2.02292 
0.09235 0.17821 2.04672 
0.13659 0.25990 2.04090 
0.09180 0.33816 2.06401 
0.13684 0.41905 2.05729 
0.09040 0.49622 2.07808 
0.13589 0.57674 2.07055 
0.08607 0.65154 2.09371 
0.12354 0.73403 2.08394 
0.09669 0.81625 2.10826 
0.22561 -0.83164 1.86908 
0.17168 -0.77283 1.88840 
0.22036 -0.69120 1.90298 
0.17942 -0.62306 1.91930 
0.22749 -0.54113 1.93174 
0.17857 -0.46427 1.95161 
0.22621 -0.38177 1.96200 
0.17833 -0.30410 1.97978 
0.22667 -0.22181 1.98806 
0.17884 -0.14364 2.00464 
0.22725 -0.06148 2.01242 
0.17943 0.01711 2.02764 
0.22793 0.09969 2.03292 
0.18030 0.17792 2.04727 
0.22860 0.26076 2.05086 
0.18098 0.33802 2.06470 
0.22872 0.42179 2.06674 
0.18094 0.49752 2.08078 
0.22679 0.58472 2.08132 
0.17517 0.65893 2.09548 
0.20775 0.76368 2.09789 
0.17222 0.85044 2.10286 
0.33216 -0.78742 1.87751 
0.25983 -0.76275 1.87213 
0.32470 -0.70125 1.90009 
0.27480 -0.61726 1.90387 
0.31408 -0.54053 1.93470 
0.27130 -0.45804 1.93459 
0.31489 -0.38026 1.96381 
0.27116 -0.29876 1.96234 
0.31573 -0.22095 1.98983 
0.27164 -0.13921 1.98732 
0.31577 -0.06108 2.01411 
0.27210 0.02118 2.00996 
0.31639 0.09981 2.03455 
0.27313 0.18231 2.02968 
0.31758 0.26093 2.05379 
0.27398 0.34350 2.04729 
0.31696 0.42303 2.07096 
0.27401 0.50639 2.06411 
0.31279 0.58967 2.08694 
0.26772 0.67398 2.07906 
0.29098 0.75589 2.10118 
0.26337 0.82205 2.09898 
0.39536 -0.73619 1.88373 
0.41546 -0.68753 1.88951 
0.36420 -0.61656 1.91074 
0.40662 -0.53398 1.91572 
0.36068 -0.45744 1.94117 
0.40786 -0.37419 1.94426 
0.36257 -0.29805 1.96886 
0.40896 -0.21635 1.97106 
0.36298 -0.13928 1.99466 
0.40847 -0.05715 1.99461 
0.36312 0.02120 2.01680 
0.40895 0.10380 2.01517 
0.36393 0.18236 2.03621 
0.41032 0.26476 2.03460 
0.36411 0.34370 2.05311 
0.40918 0.42653 2.05240 
0.36058 0.50836 2.06946 
0.40571 0.59450 2.06993 
0.35491 0.68258 2.08459 
0.42239 0.73953 2.08757 
0.35769 0.77229 2.09246 
0.45928 -0.73440 1.88552 
0.49662 -0.67038 1.89267 
0.45111 -0.61259 1.91627 
0.49499 -0.53101 1.91983 
0.44929 -0.45686 1.94559 
0.49491 -0.37460 1.94657 
0.45361 -0.29684 1.97229 
0.50007 -0.21574 1.97376 
0.45349 -0.13867 1.99793 
0.49914 -0.05737 1.99774 
0.45287 0.02128 2.02000 
0.49929 0.10344 2.01903 
0.45389 0.18193 2.04012 
0.50028 0.26326 2.03802 
0.45416 0.34290 2.05826 
0.49414 0.42592 2.05468 
0.44821 0.50835 2.07608 
0.49650 0.59646 2.07052 
0.44355 0.67083 2.09046 
0.51188 0.68537 2.08000 
0.57490 -0.65795 1.89550 
0.53877 -0.60334 1.90013 
0.58450 -0.53055 1.92472 
0.54061 -0.45255 1.92546 
0.58471 -0.37719 1.95305 
0.54620 -0.29283 1.95322 
0.59292 -0.21402 1.97816 
0.54584 -0.13627 1.97646 
0.58988 -0.05780 2.00120 
0.54470 0.02452 1.99858 
0.58989 0.10303 2.02377 
0.54617 0.18555 2.02020 
0.59300 0.25992 2.04267 
0.54639 0.34293 2.03999 
0.58491 0.42346 2.06226 
0.53982 0.50489 2.05636 
0.58597 0.57613 2.07775 
0.57552 0.64986 2.07416 
0.60441 -0.59220 1.90275 
0.65751 -0.51238 1.91326 
0.62598 -0.44965 1.92620 
0.67079 -0.37281 1.93476 
0.62305 -0.29499 1.95037 
0.67279 -0.21346 1.96338 
0.63675 -0.13443 1.97729 
0.67849 -0.06005 1.97962 
0.63409 0.02443 2.00000 
0.67851 0.11166 2.00391 
0.63682 0.18318 2.02105 
0.67263 0.26403 2.03029 
0.62331 0.34511 2.03738 
0.67165 0.42513 2.04627 
0.62973 0.50015 2.05511 
0.66103 0.57577 2.06277 
0.70376 -0.44527 1.92770 
0.73787 -0.36798 1.93419 
0.71239 -0.29832 1.95686 
0.74429 -0.21738 1.95125 
0.73904 -0.13183 1.97831 
0.76493 -0.05469 1.98605 
0.71802 0.02413 2.00384 
0.76494 0.10485 2.00821 
0.73905 0.18121 2.02249 
0.74491 0.27105 2.01951 
0.71313 0.34785 2.04684 
0.74088 0.42076 2.04346 
0.70919 0.49676 2.05788 
0.78340 -0.28004 1.94844 
0.80698 -0.18020 1.96498 
0.82544 -0.10599 1.96905 
0.85190 -0.02961 1.98508 
0.80056 0.02709 1.98266 
0.85193 0.08099 2.00008 
0.82550 0.15877 2.00593 
0.80751 0.23134 2.02321 
0.78383 0.33206 2.03464 
0.91878 0.39477 2.00000 
0.00000 0.00000 -1.50000 
CELLS 1023 3068
2 0 5
2 0 6
2 0 7
2 0 20
2 1 2
2 1 7
2 1 8
2 1 9
2 2 9
2 2 10
2 2 11
2 3 11
2 3 12
2 3 13
2 3 24
2 4 5
2 4 16
2 4 17
2 4 18
2 5 6
2 5 18
2 6 18
2 6 19
2 6 20
2 7 8
2 7 20
2 8 9
2 8 20
2 8 21
2 8 22
2 9 10
2 9 22
2 10 11
2 10 22
2 10 23
2 10 24
2 11 24
2 12 13
2 12 24
2 12 25
2 12 26
2 13 14
2 13 26
2 14 26
2 14 27
2 14 28
2 15 16
2 15 31
2 15 32
2 15 33
2 16 17
2 16 33
2 17 18
2 17 33
2 17 34
[...]
CELL_DATA 1023
SCALARS Strain double 
LOOKUP_TABLE default 
44.12650
31.67747
38.95620
22.81836
26.99861
41.38133
13.62302
18.11885
11.43700
17.09898
20.82635
18.20642
14.11999
21.04643
15.13543
34.92266
22.32605
18.59222
14.15668
16.11818
27.98193
21.97970
20.68477
20.86156
32.86053
18.85808
15.44508
16.11072
24.74478
24.89855
21.57315
18.06302
10.72422
15.12044
19.03893
19.59405
17.45822
13.79724
17.12123
14.31360
16.81053
19.23179
13.95872
14.63122
13.24875
16.01628
17.69608
18.80805
14.59930
12.80401
14.58787
15.96468
19.79692
18.87901
18.25725
15.86310
17.73165
20.55205
21.17882
14.07214
19.26121
23.97981
18.12189
19.96585
17.13297
23.52860
19.62461
14.06981
18.32160
19.02629
16.87699
17.54476
18.59505
16.81537
20.91666
20.06721
17.73367
16.06567
15.70448
18.72502
16.97329
17.23080
15.17827
16.82766
16.72606
17.02917
18.07810
15.02680
15.11985
14.30940
21.87914
13.65756
15.03866
11.98071
12.46227
12.59916
17.73822
17.11274
17.35930
16.49558
15.69513
17.12896
17.09569
17.72596
19.15461
18.10576
19.70479
20.10867
18.45041
16.45419
17.56762
19.51250
18.06531
11.83874
19.95813
19.53417
17.13954
16.81912
16.42346
19.56140
16.85754
18.31052
18.76341
17.39891
17.83109
18.09360
16.90472
16.96924
18.16575
18.00443
17.25666
15.37712
16.65950
17.21887
17.60037
17.76397
17.19825
17.20022
16.41700
17.53352
13.91550
15.33022
14.13094
15.91931
14.30318
15.77080
17.13335
17.42313
17.62300
17.36270
16.76677
16.91356
18.25561
15.90627
17.04406
18.36052
18.19069
19.29183
18.22606
18.28981
16.93742
14.98249
18.34853
19.34984
16.35128
19.89676
18.36469
14.05362
17.09272
15.56322
18.02221
17.78838
18.72388
17.97940
16.74056
17.30917
18.37446
17.00144
17.49493
17.55949
17.74581
18.85941
17.99955
16.73616
17.20650
16.49354
18.33824
19.74857
17.89806
18.06422
17.08496
18.95541
17.40971
17.80740
14.02743
13.14103
20.05928
11.79814
11.94515
16.53541
9.83972
17.72841
16.79216
16.85957
16.83534
17.57503
17.47351
18.17665
17.34663
17.73435
17.97510
17.00501
17.04662
18.01815
17.99981
18.24117
17.12729
17.64606
17.71680
17.80271
18.38225
17.98792
16.68235
18.38437
18.56546
17.65545
18.00275
17.08152
16.74978
18.03255
18.81281
17.95857
16.58584
17.47869
17.90282
17.48713
17.99882
18.17038
17.32842
17.86731
17.52035
17.63764
17.74619
17.95613
18.18638
18.22988
16.89412
16.47664
18.24678
18.00456
19.62619
13.37822
17.01746
16.65509
13.69656
15.46045
16.83913
22.14258
14.30003
15.13140
17.81589
17.82668
20.26100
18.49494
17.66647
17.36465
17.40493
17.16939
17.10978
17.74960
17.90141
17.63041
17.52868
17.33693
16.85581
17.93630
17.99324
16.75485
17.83984
17.51479
16.60819
17.86302
17.87014
15.97197
18.29424
17.79561
16.46262
17.62600
17.33347
16.05213
18.49640
18.08185
16.62753
17.29753
16.95072
17.51333
17.91985
17.93138
17.39141
17.50461
17.55853
17.39947
18.02267
17.74306
17.06226
17.68947
18.11525
16.63847
19.31202
17.93639
16.46938
18.13672
18.79356
16.98281
16.68584
12.85113
16.56250
15.78586
13.33726
20.39927
14.34380
18.13658
15.41396
16.43460
17.07674
17.30013
18.11497
18.17738
15.19907
17.77640
18.53662
17.34605
17.68265
17.71570
17.81167
17.83540
17.92714
17.65214
17.79872
17.31452
17.83798
17.85983
17.89039
17.94104
18.00284
16.96761
17.84468
17.87050
17.86465
18.20196
18.12978
16.80776
17.74884
17.56342
17.86232
18.32852
18.30010
17.02147
17.37661
17.00801
17.96099
18.06774
18.41847
17.60043
16.90133
17.21028
18.13769
18.25959
18.32270
17.65419
16.87317
17.49519
18.12948
18.60305
18.68013
17.48856
17.23329
20.89742
18.07388
15.14662
20.90498
17.09787
17.78270
23.67449
18.14901
14.84088
14.09960
15.15640
16.63820
16.56130
18.10657
15.99362
17.37410
17.14787
17.63774
17.83985
17.38350
17.46301
17.90205
17.89902
17.86699
16.86786
17.58934
17.56472
17.81407
17.84052
17.79228
16.47504
17.67985
17.72395
17.80958
17.78287
17.71298
16.37988
17.79467
17.79531
17.83257
17.71488
17.56903
16.35873
17.89473
17.89488
17.86416
17.52219
17.38253
16.63203
17.79398
17.87436
17.94507
17.30857
17.34541
17.19820
17.70129
17.71397
18.11061
17.29902
17.22990
17.32371
17.89902
17.61404
18.09512
17.46257
17.36575
16.97487
17.24524
17.35723
16.96888
15.63536
22.57570
11.61359
11.69763
14.32714
16.31322
17.25476
18.35503
17.61130
15.38484
17.40235
17.09963
17.47920
17.61363
17.63504
17.41021
17.79176
17.87372
17.69374
17.99902
17.62092
16.53812
17.79429
17.94018
17.42963
18.05277
17.65914
16.34656
17.75010
17.93724
17.35787
18.06926
17.69959
16.32850
17.67223
17.85027
17.35352
18.07038
17.72335
16.39136
17.56459
17.62423
17.53556
17.97942
17.75106
16.66357
17.47780
17.37807
17.78871
17.56371
17.67875
17.11277
17.50023
17.60534
17.88787
16.58224
17.63499
17.26820
17.74549
19.83975
17.33189
18.52783
18.05250
14.40671
17.57900
13.32099
19.54924
15.15489
23.95164
11.68369
9.91957
14.34640
14.05932
11.78215
17.67134
17.21980
17.27560
16.25426
17.35750
18.60199
17.82695
17.46252
17.56107
16.95373
17.86098
17.85706
17.82812
17.72875
17.62356
17.75180
17.74159
18.11340
17.81491
17.66348
17.66614
17.82923
17.68556
18.11802
17.75668
17.68315
17.69176
17.85121
17.69929
18.08024
17.66027
17.69067
17.71524
17.84080
17.73093
17.97852
17.54422
17.72277
17.68593
17.80763
17.86288
17.75869
17.45931
17.79496
17.64266
17.74492
18.04055
17.37562
17.52277
17.85889
17.78333
17.80369
18.07416
16.48248
18.02681
17.31873
17.58028
19.91837
17.34920
18.49755
15.15560
19.53831
13.31347
22.56296
15.20498
18.18553
14.87719
16.03792
16.53043
17.09933
16.65888
18.06750
18.19930
17.73075
17.50309
17.69768
17.49764
17.46844
17.65477
17.79164
16.68032
17.59941
17.61295
17.47566
17.80860
17.80548
16.52255
17.61832
17.59541
17.51275
17.76966
17.75771
16.47200
17.63786
17.61886
17.50127
17.72667
17.68315
16.46361
17.63862
17.63228
17.47869
17.66336
17.61723
16.59212
17.61800
17.62544
17.51088
17.59051
17.56513
16.83682
17.48622
17.51532
17.48166
17.60554
17.55800
17.11744
17.56172
17.34112
17.37679
17.88782
17.22672
16.88472
16.96907
17.37335
17.07204
23.66249
15.61654
15.42015
22.13352
14.39689
18.23099
17.04086
15.22846
16.46946
19.97408
17.36500
18.16004
18.35918
17.64985
17.77275
16.32914
17.79654
18.16739
17.89776
17.59194
17.54800
16.74136
17.88011
18.16003
17.92067
17.62475
17.50710
16.81707
17.80895
18.13598
17.90009
17.64856
17.59258
16.70682
17.81465
18.18279
17.88492
17.53976
17.59321
16.69406
17.84659
18.19270
17.91524
17.36085
17.53101
16.80517
17.88581
18.28819
17.95330
17.12715
17.50008
16.67019
18.19826
18.70378
17.99290
17.30151
17.61277
16.26339
18.64514
20.94470
18.03853
17.77636
20.90489
15.73101
15.12756
18.10899
14.32209
16.87938
15.31948
17.73290
18.55363
15.10075
17.47789
17.80864
17.30897
16.93270
17.58539
17.83273
17.93909
18.09781
17.76516
16.92484
17.50029
17.51020
18.04003
18.03513
17.75891
17.32947
17.58139
17.52326
18.04234
17.89403
17.72925
17.32727
17.64424
17.67875
17.96215
17.99418
17.70644
17.25458
17.65753
17.63086
17.93076
18.05580
17.69468
17.20814
17.72074
17.58014
17.95634
17.99128
17.69013
17.06411
17.80478
17.79862
17.82681
18.16843
17.93320
16.35117
18.18488
18.18552
17.91876
19.40669
16.59533
16.55797
13.34359
18.73620
12.85027
20.36807
9.59148
11.79484
17.01659
11.85882
15.60356
16.44093
17.59567
16.43569
17.56577
17.06508
16.70337
17.61247
18.14747
16.74435
17.38934
17.49556
16.41723
17.82667
17.79470
17.22122
17.56015
17.40978
17.22988
17.69683
17.77754
17.11449
17.64109
17.63682
17.14467
17.72600
17.89475
16.96157
17.59091
17.72039
17.08465
17.70462
17.91619
17.00860
17.66406
17.75125
17.00712
17.53296
17.86113
17.04015
18.33771
18.02793
15.99786
17.73785
18.45025
16.57729
19.54611
18.25241
17.16233
16.52748
16.67074
17.01971
16.92242
13.53708
13.38793
19.97499
13.89150
14.45148
14.86160
14.90843
17.53875
16.92323
17.16763
16.36241
16.92772
17.18671
17.81384
17.72180
17.34569
17.55795
17.01291
18.34953
17.69569
17.92392
17.64917
17.43051
17.59346
17.35007
17.64704
17.96953
17.78472
17.82561
17.16216
17.74321
17.87438
17.86984
17.61883
17.66328
17.14450
17.91282
17.73098
17.89530
17.84612
17.39760
17.57949
17.41354
17.44365
17.80439
18.35024
18.83359
17.22451
17.24942
19.12603
17.75366
17.68929
17.14601
19.45643
17.40653
18.08726
13.12753
13.62223
12.12689
13.48592
16.88216
12.32589
16.90035
12.68316
14.22057
17.18462
17.31481
16.08481
17.54647
16.52134
16.62171
17.14864
17.99125
14.38655
17.18021
17.15045
15.24602
17.17172
17.66478
17.18600
17.78800
17.59240
17.24600
17.67360
17.80440
16.88192
17.69150
17.65149
17.24626
17.58500
17.14233
17.13720
18.04676
17.19548
15.13857
17.11448
17.40133
14.39897
17.65527
17.14554
16.64284
16.82297
16.50564
17.00819
13.91059
17.11103
14.30876
21.74258
18.28788
13.27786
15.55543
16.87253
14.58392
17.52520
14.98403
12.45243
16.62806
18.27659
16.92884
16.59332
17.77342
13.52534
20.23696
16.06545
19.46559
18.51767
17.78402
16.36903
18.22098
18.59291
15.80321
15.90827
18.20615
16.36075
17.81132
16.78135
19.45092
18.03290
20.29082
13.68406
17.91002
17.78238
17.07144
16.27760
16.54171
12.88460
15.34078
15.44069
14.91743
17.53206
15.94612
14.51260
19.00838
16.43499
13.76025
16.97613
13.78371
13.83410
15.34725
15.89181
17.13083
17.68850
15.22464
17.10310
16.85383
17.69215
16.05362
15.37688
16.85337
17.11281
15.22478
17.01695
17.16815
15.97160
16.50014
13.84495
13.78519
14.61665
13.69200
15.71856
18.79002
19.78281
14.31650
15.48106
14.30504
21.32379
14.29369
15.47060
14.34612
19.81980
0.10000
