# vtk DataFile Version 3.0
Point representing Sub_cellular elem model
ASCII

DATASET UNSTRUCTURED_GRID
POINTS 364 float
-0.65854 -0.02370 1.95865 
-0.84037 -0.12775 2.03830 
-0.85546 0.01041 2.03614 
-0.82302 0.21167 2.04552 
-0.78904 -0.32129 1.88698 
-0.83376 -0.14724 1.89117 
-0.75367 -0.14971 1.92381 
-0.64647 -0.21390 2.01819 
-0.77271 -0.11052 2.00685 
-0.81326 -0.03204 2.02330 
-0.79121 0.07332 2.02479 
-0.83059 0.11891 2.03560 
-0.76462 0.25782 2.03678 
-0.80124 0.31965 2.05500 
-0.75658 0.40998 2.05917 
-0.67484 -0.49687 1.88428 
-0.72954 -0.42140 1.89202 
-0.69830 -0.35192 1.90888 
-0.75169 -0.26381 1.91946 
-0.67543 -0.22016 1.94865 
-0.68458 -0.12174 2.01044 
-0.67044 -0.03505 1.99438 
-0.73809 0.01344 2.02593 
-0.69726 0.10134 2.02033 
-0.75333 0.16741 2.04011 
-0.68640 0.25496 2.04281 
-0.72883 0.33638 2.06023 
-0.68523 0.41531 2.05898 
-0.72164 0.48625 2.07234 
-0.67270 0.56828 2.07568 
-0.58927 -0.64520 1.86977 
-0.61995 -0.57895 1.87670 
-0.60267 -0.51940 1.90319 
-0.64701 -0.43692 1.90385 
-0.60860 -0.37108 1.93832 
-0.64930 -0.29010 1.93822 
-0.57825 -0.22565 1.97719 
-0.59388 -0.13055 1.97825 
-0.56893 -0.04510 2.01279 
-0.63998 0.03043 2.00938 
-0.60004 0.10554 2.03117 
-0.64996 0.17892 2.02766 
-0.60413 0.25811 2.05053 
-0.63890 0.34100 2.04575 
-0.59768 0.41826 2.07026 
-0.64233 0.49468 2.06548 
-0.59705 0.57034 2.08726 
-0.51075 -0.66137 1.87255 
-0.55348 -0.59231 1.88162 
-0.51101 -0.52462 1.90661 
-0.55727 -0.44534 1.91351 
-0.50809 -0.37641 1.94238 
-0.54473 -0.30067 1.94841 
-0.48551 -0.22192 1.97265 
-0.52805 -0.13635 1.98651 
-0.47831 -0.04951 2.00020 
-0.53691 0.03747 2.00660 
-0.50110 0.10983 2.02286 
-0.55576 0.18621 2.02706 
-0.50891 0.26448 2.04027 
-0.55686 0.34019 2.04667 
-0.50521 0.42446 2.05958 
-0.55147 0.49951 2.06479 
-0.50772 0.59298 2.07816 
-0.58777 0.64432 2.08441 
-0.52258 0.68134 2.08985 
-0.47234 -0.72635 1.86664 
-0.42838 -0.68069 1.87608 
-0.46656 -0.60648 1.90256 
-0.41950 -0.53090 1.90884 
-0.46502 -0.45571 1.93905 
-0.41130 -0.37910 1.94326 
-0.45205 -0.30493 1.97355 
-0.40629 -0.22023 1.97560 
-0.44427 -0.13996 2.00357 
-0.40358 -0.05422 2.00142 
-0.44426 0.02983 2.02719 
-0.40653 0.11147 2.01971 
-0.46015 0.18613 2.04366 
-0.41674 0.26730 2.03795 
-0.46334 0.34354 2.06152 
-0.41817 0.42597 2.05661 
-0.45879 0.50610 2.08172 
-0.41574 0.59171 2.07573 
-0.45366 0.66740 2.09754 
-0.43292 0.73622 2.09561 
-0.34445 -0.78248 1.86455 
-0.40791 -0.72965 1.86711 
-0.33776 -0.69704 1.89032 
-0.37736 -0.61251 1.90077 
-0.32634 -0.53968 1.92968 
-0.37020 -0.45912 1.93772 
-0.31867 -0.38441 1.96426 
-0.36155 -0.30234 1.96883 
-0.31428 -0.22420 1.99475 
-0.35596 -0.13981 1.99526 
-0.31212 -0.05977 2.01886 
-0.35555 0.02621 2.01734 
-0.31384 0.10470 2.03942 
-0.36555 0.18715 2.03770 
-0.32242 0.26396 2.05579 
-0.37082 0.34511 2.05438 
-0.32474 0.42361 2.07289 
-0.36963 0.50737 2.07268 
-0.32200 0.58823 2.09097 
-0.36480 0.68030 2.09042 
-0.30057 0.75383 2.10660 
-0.36762 0.76971 2.09945 
-0.23798 -0.82773 1.86132 
-0.27153 -0.75842 1.86414 
-0.23150 -0.68878 1.89774 
-0.28564 -0.61510 1.89884 
-0.23575 -0.54167 1.92908 
-0.27722 -0.46000 1.93292 
-0.22950 -0.38376 1.96083 
-0.27313 -0.30141 1.96476 
-0.22631 -0.22341 1.98944 
-0.27157 -0.14016 1.99232 
-0.22480 -0.06078 2.01265 
-0.27090 0.02354 2.01384 
-0.22571 0.10229 2.03343 
-0.27344 0.18642 2.03266 
-0.23050 0.26341 2.05122 
-0.27929 0.34534 2.04858 
-0.23453 0.42237 2.06752 
-0.28189 0.50621 2.06575 
-0.23499 0.58375 2.08437 
-0.27699 0.67230 2.08398 
-0.21716 0.76216 2.10237 
-0.27336 0.82012 2.10423 
-0.14248 -0.83306 1.86053 
-0.18462 -0.76994 1.88344 
-0.13601 -0.69602 1.88676 
-0.18981 -0.62205 1.91628 
-0.14261 -0.54193 1.92066 
-0.18446 -0.46571 1.95097 
-0.13843 -0.38347 1.95181 
-0.18032 -0.30626 1.98213 
-0.13704 -0.22291 1.98041 
-0.17875 -0.14454 2.00922 
-0.13632 -0.06131 2.00433 
-0.17816 0.01838 2.03108 
-0.13631 0.10093 2.02413 
-0.18023 0.18040 2.04999 
-0.13809 0.26167 2.04241 
-0.18530 0.33930 2.06627 
-0.14184 0.41963 2.05855 
-0.18805 0.49733 2.08241 
-0.14356 0.57631 2.07337 
-0.18388 0.65790 2.09885 
-0.13289 0.73326 2.08661 
-0.18217 0.84921 2.10677 
-0.06901 -0.82894 1.87071 
-0.09595 -0.76891 1.88080 
-0.04559 -0.70213 1.90112 
-0.09608 -0.62164 1.91843 
-0.04939 -0.54541 1.93632 
-0.09526 -0.46564 1.94997 
-0.04567 -0.38709 1.96737 
-0.09304 -0.30555 1.97893 
-0.04416 -0.22609 1.99525 
-0.09195 -0.14417 2.00459 
-0.04341 -0.06433 2.01984 
-0.09144 0.01781 2.02635 
-0.04328 0.09766 2.03995 
-0.09214 0.17932 2.04616 
-0.04467 0.25852 2.05834 
-0.09436 0.33918 2.06390 
-0.04752 0.41761 2.07417 
-0.09650 0.49626 2.07961 
-0.04930 0.57593 2.08876 
-0.09433 0.65110 2.09582 
-0.04303 0.74149 2.10342 
-0.10626 0.81549 2.11110 
-0.06735 0.87561 2.11066 
-0.00622 -0.83309 1.86528 
0.05645 -0.83042 1.87150 
-0.00584 -0.78164 1.87461 
0.03470 -0.70266 1.90211 
-0.00427 -0.62083 1.90597 
0.04240 -0.54518 1.93625 
-0.00256 -0.46403 1.93788 
0.04195 -0.38627 1.96644 
-0.00172 -0.30404 1.96669 
0.04254 -0.22542 1.99326 
-0.00104 -0.14290 1.99217 
0.04321 -0.06416 2.01745 
-0.00049 0.01840 2.01454 
0.04365 0.09726 2.03780 
-0.00038 0.17971 2.03359 
0.04362 0.25804 2.05656 
-0.00132 0.33977 2.05123 
0.04301 0.41765 2.07336 
-0.00310 0.49831 2.06596 
0.04202 0.57630 2.08737 
-0.00429 0.65767 2.08002 
0.03400 0.74183 2.10242 
-0.00496 0.82602 2.09752 
0.05740 0.87605 2.10910 
0.12999 -0.83529 1.86404 
0.08406 -0.77001 1.88290 
0.12538 -0.69744 1.88945 
0.08716 -0.62200 1.92015 
0.13560 -0.54178 1.92206 
0.09020 -0.46532 1.95077 
0.13441 -0.38236 1.95158 
0.09071 -0.30518 1.97942 
0.13465 -0.22203 1.97795 
0.09147 -0.14421 2.00518 
0.13534 -0.06137 2.00182 
0.09211 0.01714 2.02731 
0.13607 0.09944 2.02287 
0.09235 0.17821 2.04665 
0.13659 0.25990 2.04087 
0.09181 0.33817 2.06398 
0.13684 0.41906 2.05728 
0.09041 0.49622 2.07809 
0.13589 0.57675 2.07058 
0.08607 0.65153 2.09376 
0.12353 0.73404 2.08401 
0.09669 0.81625 2.10836 
0.22576 -0.83149 1.86921 
0.17248 -0.77254 1.88789 
0.22001 -0.69126 1.90303 
0.17932 -0.62320 1.91916 
0.22734 -0.54123 1.93151 
0.17855 -0.46422 1.95166 
0.22618 -0.38177 1.96183 
0.17835 -0.30407 1.97979 
0.22666 -0.22180 1.98796 
0.17886 -0.14362 2.00459 
0.22724 -0.06147 2.01235 
0.17944 0.01712 2.02757 
0.22792 0.09970 2.03286 
0.18031 0.17793 2.04720 
0.22860 0.26076 2.05081 
0.18098 0.33803 2.06466 
0.22872 0.42179 2.06672 
0.18094 0.49753 2.08078 
0.22679 0.58471 2.08135 
0.17516 0.65893 2.09552 
0.20775 0.76367 2.09797 
0.17222 0.85042 2.10297 
0.33240 -0.78767 1.87771 
0.26015 -0.76238 1.87218 
0.32500 -0.70127 1.90037 
0.27458 -0.61748 1.90403 
0.31417 -0.54054 1.93485 
0.27122 -0.45815 1.93463 
0.31493 -0.38026 1.96386 
0.27112 -0.29878 1.96229 
0.31576 -0.22095 1.98980 
0.27162 -0.13920 1.98725 
0.31579 -0.06108 2.01406 
0.27210 0.02119 2.00991 
0.31640 0.09981 2.03450 
0.27314 0.18232 2.02965 
0.31759 0.26093 2.05377 
0.27399 0.34350 2.04729 
0.31697 0.42303 2.07097 
0.27402 0.50639 2.06414 
0.31279 0.58968 2.08699 
0.26772 0.67398 2.07913 
0.29098 0.75589 2.10127 
0.26337 0.82205 2.09909 
0.39537 -0.73597 1.88293 
0.41550 -0.68776 1.89034 
0.36410 -0.61651 1.91013 
0.40656 -0.53407 1.91592 
0.36068 -0.45737 1.94098 
0.40778 -0.37420 1.94423 
0.36258 -0.29802 1.96882 
0.40891 -0.21632 1.97097 
0.36298 -0.13927 1.99466 
0.40844 -0.05711 1.99454 
0.36311 0.02121 2.01678 
0.40895 0.10382 2.01513 
0.36393 0.18236 2.03618 
0.41034 0.26477 2.03460 
0.36410 0.34370 2.05309 
0.40920 0.42653 2.05244 
0.36057 0.50836 2.06948 
0.40572 0.59449 2.07000 
0.35491 0.68257 2.08467 
0.42240 0.73953 2.08768 
0.35770 0.77228 2.09257 
0.45928 -0.73454 1.88578 
0.49648 -0.67027 1.89232 
0.45130 -0.61256 1.91644 
0.49505 -0.53096 1.91961 
0.44937 -0.45681 1.94566 
0.49503 -0.37459 1.94661 
0.45361 -0.29685 1.97227 
0.50012 -0.21578 1.97388 
0.45350 -0.13868 1.99788 
0.49915 -0.05738 1.99783 
0.45288 0.02127 2.01995 
0.49929 0.10344 2.01906 
0.45390 0.18192 2.04011 
0.50027 0.26326 2.03803 
0.45417 0.34290 2.05829 
0.49413 0.42593 2.05471 
0.44822 0.50835 2.07613 
0.49650 0.59646 2.07060 
0.44356 0.67083 2.09056 
0.51189 0.68537 2.08011 
0.57490 -0.65801 1.89562 
0.53888 -0.60353 1.90032 
0.58456 -0.53056 1.92482 
0.54059 -0.45259 1.92546 
0.58474 -0.37716 1.95306 
0.54616 -0.29280 1.95307 
0.59289 -0.21404 1.97810 
0.54578 -0.13618 1.97637 
0.58991 -0.05782 2.00115 
0.54469 0.02457 1.99853 
0.58990 0.10301 2.02377 
0.54618 0.18557 2.02019 
0.59300 0.25991 2.04271 
0.54639 0.34293 2.04002 
0.58492 0.42345 2.06233 
0.53982 0.50488 2.05643 
0.58597 0.57612 2.07785 
0.57553 0.64986 2.07427 
0.60432 -0.59200 1.90273 
0.65767 -0.51247 1.91328 
0.62593 -0.44962 1.92631 
0.67089 -0.37285 1.93464 
0.62321 -0.29498 1.95059 
0.67325 -0.21348 1.96324 
0.63679 -0.13461 1.97746 
0.67853 -0.05997 1.97956 
0.63410 0.02440 2.00011 
0.67851 0.11169 2.00390 
0.63682 0.18315 2.02113 
0.67259 0.26403 2.03030 
0.62330 0.34511 2.03745 
0.67164 0.42511 2.04635 
0.62974 0.50016 2.05519 
0.66104 0.57576 2.06288 
0.70368 -0.44530 1.92775 
0.73780 -0.36785 1.93435 
0.71241 -0.29826 1.95690 
0.74407 -0.21740 1.95145 
0.73908 -0.13193 1.97827 
0.76498 -0.05472 1.98618 
0.71801 0.02414 2.00386 
0.76493 0.10483 2.00832 
0.73905 0.18118 2.02254 
0.74494 0.27104 2.01962 
0.71314 0.34786 2.04691 
0.74090 0.42078 2.04356 
0.70921 0.49675 2.05799 
0.78334 -0.27991 1.94846 
0.80676 -0.18030 1.96501 
0.82540 -0.10604 1.96912 
0.85190 -0.02963 1.98516 
0.80058 0.02710 1.98269 
0.85195 0.08099 2.00017 
0.82551 0.15875 2.00600 
0.80755 0.23131 2.02328 
0.78385 0.33207 2.03473 
0.91878 0.39477 2.00000 
0.00000 0.00000 -1.50000 
CELLS 1023 3068
2 0 5
2 0 6
2 0 7
2 0 20
2 1 2
2 1 7
2 1 8
2 1 9
2 2 9
2 2 10
2 2 11
2 3 11
2 3 12
2 3 13
2 3 24
2 4 5
2 4 16
2 4 17
2 4 18
2 5 6
2 5 18
2 6 18
2 6 19
2 6 20
2 7 8
2 7 20
2 8 9
2 8 20
2 8 21
2 8 22
2 9 10
2 9 22
2 10 11
2 10 22
2 10 23
2 10 24
2 11 24
2 12 13
2 12 24
2 12 25
2 12 26
2 13 14
2 13 26
2 14 26
2 14 27
2 14 28
2 15 16
2 15 31
2 15 32
2 15 33
2 16 17
2 16 33
2 17 18
2 17 33
2 17 34
[...]
CELL_DATA 1023
SCALARS Strain double 
LOOKUP_TABLE default 
43.95234
31.33830
38.93417
21.77831
26.79982
41.62498
14.31443
19.11919
11.24492
17.12584
21.26243
17.71871
13.98892
21.11251
15.54614
34.94978
22.31390
18.64876
14.17055
16.30355
28.06867
21.83969
20.63481
21.85670
31.71283
19.00652
16.97059
16.78367
24.54222
25.02067
20.52939
16.57774
11.24066
15.01047
18.62849
19.51676
17.26632
13.82668
17.23446
14.70092
16.89167
19.17026
13.90071
14.73314
13.31140
15.98394
17.70697
18.80624
14.58695
12.78631
14.60534
15.96113
19.71268
18.88080
18.26712
15.83325
17.51720
20.47201
22.31491
14.07569
19.28686
23.94626
16.85732
18.32821
16.80328
23.69148
19.73015
13.75091
18.41761
19.18771
16.77562
17.36300
18.58294
17.23171
21.04757
19.95004
17.69039
16.13370
15.53820
18.66403
17.03542
17.24071
15.17019
16.71280
16.66341
17.09182
18.11650
15.00972
15.05327
14.31157
21.86488
13.66588
15.04400
11.99116
12.48578
12.59547
17.72980
17.11092
17.37277
16.49500
15.73172
17.12996
17.12802
17.72347
19.14616
18.11942
19.70771
20.11916
18.27546
16.41285
17.58596
19.57233
18.09720
12.32004
19.74966
19.67868
17.32035
16.75560
16.56363
19.67045
16.76426
18.20604
18.87720
17.42307
17.86304
17.89609
17.00167
16.95600
18.19536
17.95826
17.18757
15.41019
16.72797
17.24119
17.65838
17.72560
17.16430
17.19796
16.43510
17.52069
13.92202
15.34278
14.14418
15.93506
14.31743
15.74351
17.10332
17.40977
17.64747
17.35159
16.79478
16.89317
18.25628
15.87033
17.06103
18.36590
18.20545
19.29393
18.22566
18.31212
16.90026
14.85816
18.36372
19.20195
16.11469
20.01647
18.34039
13.97673
17.09194
15.47065
18.04342
17.80388
18.64591
17.92685
16.81035
17.43470
18.40756
16.96824
17.46935
17.44861
17.74027
18.93527
17.95036
16.66348
17.22583
16.42039
18.29666
19.81373
17.88862
18.06081
17.07193
18.95571
17.40478
17.80068
14.03348
13.14660
20.05684
11.81554
11.90244
16.51112
9.76465
17.63565
16.73280
16.85190
16.88518
17.58861
17.44111
18.17329
17.34924
17.73219
17.97917
16.97661
17.02518
18.02586
17.99544
18.25852
17.13102
17.61988
17.75059
17.81257
18.37823
17.98666
16.74089
18.37321
18.62773
17.65458
18.00436
17.05018
16.86538
17.99717
18.87477
18.00110
16.58353
17.44643
17.95991
17.48185
18.02204
18.21067
17.36567
17.82299
17.56017
17.65576
17.74552
17.97327
18.22592
18.20337
16.92599
16.48636
18.23345
18.00562
19.64826
13.38045
17.01517
16.65721
13.69686
15.52159
16.89781
22.14644
14.35771
15.15269
17.78550
17.80368
20.36915
18.49757
17.70150
17.35556
17.41598
17.21695
17.12270
17.73060
17.91089
17.62068
17.54102
17.34675
16.84820
17.93409
17.98749
16.70361
17.82449
17.49819
16.62714
17.86028
17.85234
15.88721
18.26611
17.77440
16.51028
17.61711
17.31832
15.95269
18.46638
18.06316
16.67375
17.28138
16.98612
17.44973
17.90023
17.91739
17.40598
17.47636
17.57802
17.34319
18.00532
17.74414
17.07609
17.66466
18.12188
16.60319
19.30623
17.94391
16.47496
18.12280
18.79264
16.98123
16.68107
12.85416
16.56676
15.78645
13.33977
20.40082
14.41091
18.13155
15.34316
16.41510
16.95389
17.28672
17.96174
18.27894
15.16582
17.75846
18.52928
17.33422
17.69328
17.70274
17.84490
17.83516
17.93477
17.65551
17.80648
17.30307
17.84494
17.85319
17.90960
17.95993
18.00879
16.94540
17.84001
17.87104
17.89018
18.22196
18.12958
16.77271
17.74064
17.57702
17.89321
18.34537
18.29471
16.97799
17.37652
17.01725
17.99880
18.07775
18.41096
17.56946
16.92117
17.21603
18.16651
18.26282
18.31386
17.63362
16.89088
17.50238
18.14420
18.60113
18.67189
17.47836
17.24471
20.90291
18.07776
15.15013
20.89954
17.09398
17.78337
23.67338
18.14900
14.85669
13.85754
15.36005
16.70698
16.74393
18.22259
15.67744
17.35112
17.03346
17.61966
17.75225
17.41514
17.46547
17.91825
17.88955
17.84977
16.84007
17.58565
17.56701
17.82585
17.83330
17.78759
16.46776
17.66629
17.72724
17.82288
17.78066
17.70946
16.38466
17.77937
17.79927
17.84984
17.71784
17.56239
16.37051
17.88239
17.89654
17.88529
17.52804
17.37111
16.63731
17.78772
17.87470
17.96566
17.31186
17.33179
17.19411
17.70168
17.71355
18.12415
17.29886
17.21937
17.32010
17.90150
17.61317
18.10210
17.46112
17.36033
16.97075
17.24548
17.35765
16.96739
15.63488
22.57638
12.31331
11.63215
14.80193
16.21439
17.24251
18.31689
17.55146
15.05968
17.26541
17.23246
17.53095
17.60448
17.59742
17.35825
17.78055
17.90235
17.70152
18.00260
17.59864
16.52567
17.79345
17.94257
17.43050
18.05990
17.64680
16.34560
17.75112
17.93415
17.35264
18.07491
17.69062
16.32965
17.67119
17.84796
17.34333
18.07331
17.71604
16.39116
17.56103
17.62707
17.52339
17.98027
17.74590
16.65999
17.47289
17.38503
17.78031
17.56325
17.67626
17.10821
17.49633
17.61149
17.88388
16.58125
17.63414
17.26544
17.74349
19.84255
17.33054
18.52719
18.05177
14.40743
17.57871
13.32205
19.54889
15.15397
23.95157
11.60657
9.45859
14.83530
13.81442
12.47689
17.58801
17.20514
17.14305
16.13641
17.34160
18.57972
17.78126
17.50637
17.55564
17.07115
17.86712
17.83974
17.80880
17.73073
17.62196
17.78515
17.74480
18.10163
17.81084
17.66324
17.66659
17.83934
17.68537
18.11162
17.75733
17.68583
17.69145
17.85511
17.69783
18.07670
17.66228
17.69638
17.71354
17.84340
17.72916
17.97718
17.54620
17.73009
17.68378
17.80965
17.86141
17.75926
17.46007
17.80112
17.64072
17.74636
18.03990
17.37667
17.52276
17.86246
17.78271
17.80476
18.07365
16.48275
18.02656
17.32094
17.57982
19.91873
17.34824
18.49707
15.15643
19.53884
13.31280
22.56243
15.40248
18.19706
14.88981
15.75422
16.71982
16.99412
16.73264
18.15918
18.29108
17.74415
17.43417
17.68971
17.49095
17.44499
17.69471
17.80096
16.67312
17.59210
17.60046
17.46865
17.82177
17.81024
16.52866
17.61414
17.59418
17.51099
17.77439
17.75947
16.47804
17.63522
17.62006
17.50060
17.72864
17.68329
16.46702
17.63660
17.63253
17.47814
17.66439
17.61637
16.59287
17.61663
17.62439
17.51036
17.59120
17.56421
16.83591
17.48546
17.51378
17.48094
17.60608
17.55756
17.11631
17.56111
17.33964
17.37607
17.88814
17.22676
16.88407
16.96860
17.37241
17.07189
23.66279
15.61617
15.32522
22.12148
14.45161
18.07332
16.92961
15.18411
16.46002
20.09926
17.35543
18.15965
18.32427
17.67194
17.76250
16.37897
17.80195
18.15080
17.88330
17.59953
17.54908
16.75774
17.87665
18.15089
17.91113
17.62481
17.50691
16.82568
17.80845
18.13187
17.89450
17.64728
17.59199
16.71252
17.81559
18.18030
17.88270
17.53964
17.59249
16.69831
17.84792
18.19042
17.91521
17.36220
17.53034
16.80800
17.88706
18.28572
17.95413
17.12918
17.49979
16.67277
18.19931
18.70123
17.99365
17.30331
17.61331
16.26511
18.64567
20.94291
18.03884
17.77568
20.90559
15.73190
15.12912
18.10893
14.34908
16.92664
15.32956
17.69095
18.57186
15.07557
17.41115
17.77111
17.36881
16.94659
17.58275
17.84167
17.90687
18.09713
17.79573
16.93646
17.50386
17.50751
18.01906
18.03406
17.76962
17.33882
17.58753
17.51797
18.02818
17.89452
17.73182
17.33240
17.64867
17.67279
17.95492
17.99433
17.70658
17.25485
17.65921
17.62668
17.92888
18.05433
17.69478
17.20520
17.72019
17.57902
17.95653
17.98901
17.69083
17.06047
17.80331
17.79880
17.82707
18.16600
17.93426
16.34785
18.18339
18.18579
17.91836
19.40529
16.59608
16.55733
13.34444
18.73619
12.85077
20.36942
9.55214
11.79842
17.01231
11.84603
15.57411
16.45625
17.58268
16.50251
17.56322
17.06947
16.72373
17.63989
18.12836
16.76408
17.38605
17.49913
16.45671
17.83540
17.78939
17.22026
17.55494
17.42347
17.25178
17.69755
17.77857
17.11489
17.63737
17.64847
17.15411
17.72315
17.89706
16.96519
17.58995
17.72725
17.08389
17.70257
17.91841
17.01226
17.66458
17.75308
17.00301
17.53250
17.86180
17.04419
18.34043
18.02690
15.99202
17.73945
18.44978
16.58048
19.54785
18.25048
17.16136
16.52881
16.67172
17.02026
16.92312
13.53616
13.38896
19.97614
13.90848
14.43240
14.88719
14.89538
17.52875
16.90257
17.18032
16.38971
16.93324
17.16618
17.81106
17.70575
17.34879
17.55548
16.99416
18.33421
17.69612
17.92235
17.64789
17.42315
17.57724
17.36004
17.64901
17.95786
17.77743
17.80910
17.16284
17.74960
17.87440
17.86618
17.61508
17.65863
17.14644
17.91646
17.72938
17.89456
17.84494
17.39677
17.58101
17.41487
17.44328
17.80179
18.34807
18.83647
17.22851
17.24682
19.12508
17.75258
17.68888
17.14611
19.45972
17.40642
18.08862
13.12820
13.62134
12.09582
13.52404
16.90113
12.29793
16.90249
12.64400
14.23890
17.18164
17.33025
16.07880
17.55212
16.50789
16.64214
17.15394
17.98748
14.42357
17.20392
17.14235
15.34481
17.15031
17.65689
17.20597
17.80242
17.60919
17.24859
17.66996
17.79825
16.88399
17.69723
17.64701
17.24500
17.57987
17.13936
17.13629
18.04892
17.19774
15.13148
17.11605
17.40264
14.39629
17.65263
17.14379
16.63981
16.82540
16.50793
17.00933
13.91189
17.11071
14.30997
21.74372
18.26930
13.32174
15.53934
16.87173
14.57724
17.53735
14.96442
12.41762
16.64328
18.29463
16.89666
16.60829
17.72107
13.38102
20.17624
16.11031
19.46634
18.50865
17.81157
16.37311
18.20707
18.60119
15.79924
15.90070
18.20929
16.36201
17.80735
16.78212
19.45175
18.03162
20.29843
13.69435
17.91822
17.77982
17.07575
16.27994
16.53982
12.89051
15.34426
15.43772
14.91798
17.53337
15.97675
14.48592
19.00777
16.40220
13.75077
16.94450
13.77600
13.81772
15.36412
15.84733
17.11553
17.69538
15.21784
17.09302
16.86004
17.69009
16.06012
15.37304
16.85433
17.11740
15.22708
17.01866
17.16847
15.97692
16.50163
13.84803
13.78817
14.61932
13.69364
15.71459
18.78995
19.72967
14.33518
15.48964
14.30756
21.32654
14.29278
15.46860
14.34465
19.82790
0.10000
