# vtk DataFile Version 3.0
Point representing Sub_cellular elem model
ASCII

DATASET UNSTRUCTURED_GRID
POINTS 364 float
-0.65294 -0.02943 1.94179 
-0.83078 -0.12429 2.02713 
-0.84775 0.00971 2.01909 
-0.81775 0.20978 2.01649 
-0.77615 -0.32854 1.88934 
-0.81941 -0.15801 1.87877 
-0.74298 -0.15591 1.91742 
-0.64164 -0.21022 2.01487 
-0.76497 -0.10948 1.99765 
-0.80730 -0.03359 2.00369 
-0.78487 0.07199 2.00512 
-0.82407 0.11638 2.01014 
-0.75953 0.25643 2.00607 
-0.79719 0.31868 2.02033 
-0.75310 0.40952 2.02037 
-0.66646 -0.50180 1.90093 
-0.71962 -0.42694 1.90260 
-0.68880 -0.35653 1.91557 
-0.74055 -0.26860 1.91897 
-0.66775 -0.22198 1.94839 
-0.67407 -0.12003 2.00172 
-0.66249 -0.03842 1.98108 
-0.72998 0.01342 2.01020 
-0.69072 0.10103 1.99878 
-0.74827 0.16660 2.01535 
-0.68183 0.25432 2.01386 
-0.72534 0.33636 2.02669 
-0.68272 0.41518 2.02120 
-0.72000 0.48609 2.03020 
-0.67219 0.56815 2.02958 
-0.58260 -0.65081 1.89816 
-0.61191 -0.58442 1.89983 
-0.59562 -0.52333 1.92378 
-0.63867 -0.44103 1.91730 
-0.60098 -0.37329 1.94950 
-0.64079 -0.29248 1.94236 
-0.57212 -0.22545 1.97956 
-0.58791 -0.13157 1.97516 
-0.56301 -0.04537 2.00431 
-0.63327 0.02976 1.99466 
-0.59385 0.10571 2.01336 
-0.64445 0.17813 2.00455 
-0.59990 0.25853 2.02409 
-0.63514 0.34053 2.01344 
-0.59558 0.41922 2.03482 
-0.64098 0.49468 2.02424 
-0.59692 0.57172 2.04306 
-0.50506 -0.66636 1.90336 
-0.54680 -0.59749 1.90755 
-0.50458 -0.52794 1.92918 
-0.54999 -0.44900 1.93002 
-0.50130 -0.37796 1.95605 
-0.53788 -0.30212 1.95609 
-0.47968 -0.22216 1.97742 
-0.52293 -0.13669 1.98380 
-0.47257 -0.04984 1.99454 
-0.53055 0.03673 1.99320 
-0.49520 0.10995 2.00721 
-0.55035 0.18629 2.00464 
-0.50476 0.26462 2.01542 
-0.55372 0.34050 2.01565 
-0.50321 0.42495 2.02532 
-0.55046 0.50021 2.02483 
-0.50792 0.59395 2.03393 
-0.58793 0.64543 2.03571 
-0.52461 0.68224 2.04023 
-0.46779 -0.73155 1.90294 
-0.42359 -0.68568 1.91052 
-0.46101 -0.61026 1.93183 
-0.41406 -0.53462 1.93381 
-0.45870 -0.45721 1.95909 
-0.40534 -0.38057 1.95897 
-0.44599 -0.30456 1.98432 
-0.40022 -0.22042 1.98120 
-0.43840 -0.13913 2.00416 
-0.39757 -0.05418 1.99666 
-0.43848 0.03049 2.01736 
-0.40096 0.11160 2.00505 
-0.45513 0.18703 2.02429 
-0.41272 0.26799 2.01390 
-0.46045 0.34472 2.03289 
-0.41653 0.42705 2.02333 
-0.45828 0.50780 2.04382 
-0.41682 0.59343 2.03301 
-0.45579 0.66973 2.05044 
-0.43558 0.73841 2.04449 
-0.34271 -0.78818 1.90675 
-0.40457 -0.73571 1.90424 
-0.33443 -0.70131 1.92718 
-0.37318 -0.61641 1.93211 
-0.32139 -0.54146 1.95749 
-0.36506 -0.46084 1.95998 
-0.31318 -0.38424 1.98266 
-0.35625 -0.30229 1.98167 
-0.30838 -0.22300 2.00315 
-0.35075 -0.13933 1.99812 
-0.30613 -0.05846 2.01706 
-0.35039 0.02666 2.01004 
-0.30856 0.10607 2.02754 
-0.36095 0.18824 2.02052 
-0.31866 0.26560 2.03421 
-0.36832 0.34637 2.02759 
-0.32340 0.42560 2.04196 
-0.36968 0.50901 2.03622 
-0.32354 0.59086 2.05068 
-0.36762 0.68248 2.04384 
-0.30552 0.75745 2.05719 
-0.37252 0.77170 2.04754 
-0.23708 -0.83531 1.90889 
-0.26871 -0.76590 1.90608 
-0.23087 -0.69396 1.93817 
-0.28263 -0.61894 1.93139 
-0.23302 -0.54423 1.95981 
-0.27261 -0.46188 1.95620 
-0.22546 -0.38434 1.98167 
-0.26754 -0.30180 1.97820 
-0.22164 -0.22266 2.00033 
-0.26549 -0.13977 1.99562 
-0.21997 -0.05956 2.01342 
-0.26512 0.02421 2.00706 
-0.22145 0.10390 2.02413 
-0.26890 0.18741 2.01604 
-0.22754 0.26561 2.03204 
-0.27681 0.34678 2.02242 
-0.23410 0.42508 2.03874 
-0.28220 0.50825 2.03021 
-0.23758 0.58707 2.04597 
-0.28044 0.67523 2.03903 
-0.22315 0.76634 2.05373 
-0.27933 0.82362 2.05108 
-0.14287 -0.84119 1.91018 
-0.18194 -0.77514 1.92530 
-0.13599 -0.70058 1.92660 
-0.18708 -0.62507 1.95048 
-0.14003 -0.54486 1.95129 
-0.18033 -0.46653 1.97624 
-0.13397 -0.38477 1.97272 
-0.17507 -0.30551 1.99753 
-0.13143 -0.22288 1.99124 
-0.17287 -0.14299 2.01447 
-0.13042 -0.06052 2.00505 
-0.17257 0.02018 2.02627 
-0.13121 0.10212 2.01492 
-0.17595 0.18239 2.03535 
-0.13488 0.26333 2.02357 
-0.18318 0.34164 2.04223 
-0.14137 0.42200 2.03040 
-0.18881 0.50027 2.04931 
-0.14625 0.57956 2.03616 
-0.18785 0.66177 2.05676 
-0.13853 0.73752 2.04059 
-0.18984 0.85373 2.05351 
-0.06789 -0.82952 1.91678 
-0.09846 -0.77866 1.93200 
-0.04643 -0.70721 1.94145 
-0.09515 -0.62517 1.95762 
-0.04747 -0.54774 1.96804 
-0.09299 -0.46758 1.97857 
-0.04215 -0.38749 1.98931 
-0.08956 -0.30575 1.99745 
-0.03937 -0.22505 2.00701 
-0.08765 -0.14309 2.01302 
-0.03818 -0.06250 2.02147 
-0.08724 0.01962 2.02470 
-0.03879 0.09981 2.03174 
-0.08910 0.18176 2.03459 
-0.04211 0.26110 2.04064 
-0.09358 0.34241 2.04266 
-0.04779 0.42091 2.04740 
-0.09873 0.50040 2.04898 
-0.05273 0.58025 2.05316 
-0.09964 0.65637 2.05605 
-0.04927 0.74712 2.05875 
-0.11370 0.82136 2.06148 
-0.07539 0.88135 2.05793 
-0.00798 -0.84765 1.92021 
0.05291 -0.83438 1.92137 
-0.00736 -0.78883 1.92147 
0.03419 -0.70991 1.94693 
-0.00371 -0.62642 1.94389 
0.04286 -0.54958 1.97171 
0.00012 -0.46705 1.96624 
0.04367 -0.38815 1.99225 
0.00272 -0.30504 1.98503 
0.04574 -0.22527 2.00913 
0.00450 -0.14252 2.00038 
0.04719 -0.06260 2.02325 
0.00497 0.01957 2.01276 
0.04702 0.09971 2.03362 
0.00359 0.18141 2.02204 
0.04482 0.26146 2.04263 
-0.00013 0.34229 2.03021 
0.04104 0.42235 2.04987 
-0.00530 0.50192 2.03567 
0.03699 0.58225 2.05444 
-0.00963 0.66241 2.04050 
0.02656 0.74849 2.05950 
-0.01273 0.83175 2.04834 
0.04948 0.88221 2.05845 
0.12674 -0.84451 1.91829 
0.08282 -0.77915 1.93409 
0.12525 -0.70333 1.93399 
0.08638 -0.62642 1.95972 
0.13624 -0.54690 1.95749 
0.09100 -0.46779 1.97941 
0.13685 -0.38509 1.97742 
0.09304 -0.30543 1.99748 
0.13898 -0.22260 1.99385 
0.09512 -0.14293 2.01294 
0.14066 -0.06061 2.00773 
0.09592 0.01914 2.02515 
0.14067 0.10091 2.01890 
0.09475 0.18071 2.03496 
0.13859 0.26218 2.02726 
0.09142 0.34155 2.04326 
0.13507 0.42269 2.03423 
0.08686 0.50084 2.04879 
0.13067 0.58174 2.03819 
0.07976 0.65729 2.05610 
0.11611 0.73976 2.04224 
0.08819 0.82297 2.06189 
0.22325 -0.83874 1.92503 
0.16877 -0.78045 1.93765 
0.21883 -0.69679 1.95001 
0.17820 -0.63006 1.96114 
0.22517 -0.54690 1.96719 
0.17807 -0.46864 1.98435 
0.22481 -0.38474 1.98621 
0.17954 -0.30561 2.00283 
0.22720 -0.22219 2.00172 
0.18193 -0.14294 2.01767 
0.22917 -0.06023 2.01598 
0.18301 0.01928 2.03065 
0.22933 0.10168 2.02686 
0.18211 0.18126 2.04043 
0.22747 0.26370 2.03575 
0.17934 0.34286 2.04826 
0.22414 0.42626 2.04313 
0.17571 0.50397 2.05485 
0.21981 0.59067 2.04935 
0.16760 0.66617 2.05984 
0.19939 0.77060 2.05606 
0.16387 0.85637 2.05556 
0.32913 -0.79544 1.93211 
0.25704 -0.77033 1.92373 
0.32326 -0.70975 1.94911 
0.27395 -0.62425 1.94668 
0.31230 -0.54692 1.97421 
0.27109 -0.46332 1.96778 
0.31327 -0.38435 1.99368 
0.27287 -0.30110 1.98601 
0.31641 -0.22186 2.00987 
0.27565 -0.13929 2.00128 
0.31871 -0.05967 2.02414 
0.27682 0.02217 2.01402 
0.31878 0.10267 2.03466 
0.27584 0.18410 2.02389 
0.31643 0.26564 2.04431 
0.27275 0.34685 2.03169 
0.31188 0.42997 2.05182 
0.26884 0.51167 2.03852 
0.30552 0.59749 2.05770 
0.26029 0.68021 2.04332 
0.28211 0.76393 2.06174 
0.25415 0.82968 2.05481 
0.39583 -0.74711 1.93425 
0.41251 -0.69476 1.94023 
0.36018 -0.62341 1.95308 
0.40492 -0.54078 1.95654 
0.35637 -0.46348 1.97218 
0.40565 -0.37924 1.97559 
0.35841 -0.30128 1.98876 
0.40909 -0.21778 1.99351 
0.36135 -0.13927 2.00418 
0.41145 -0.05665 2.00755 
0.36257 0.02288 2.01645 
0.41141 0.10474 2.01819 
0.36128 0.18552 2.02672 
0.40880 0.26735 2.02749 
0.35782 0.34933 2.03527 
0.40373 0.43205 2.03454 
0.35288 0.51555 2.04356 
0.39833 0.60088 2.04136 
0.34637 0.69025 2.04952 
0.41319 0.74779 2.05081 
0.34915 0.77994 2.05275 
0.45905 -0.74373 1.93901 
0.49769 -0.67968 1.94089 
0.44872 -0.62023 1.96213 
0.49149 -0.53787 1.95801 
0.44670 -0.46246 1.98196 
0.48942 -0.38076 1.97386 
0.44993 -0.30059 1.99890 
0.49239 -0.21861 1.98965 
0.45370 -0.13842 2.01449 
0.49539 -0.05619 2.00329 
0.45503 0.02341 2.02656 
0.49500 0.10614 2.01497 
0.45299 0.18577 2.03717 
0.49093 0.26986 2.02585 
0.44810 0.35019 2.04619 
0.48614 0.43473 2.03528 
0.44141 0.51651 2.05377 
0.48849 0.60435 2.04247 
0.43482 0.67930 2.05844 
0.50348 0.69330 2.04790 
0.57427 -0.66395 1.94626 
0.53584 -0.60826 1.94769 
0.58171 -0.53528 1.96787 
0.53763 -0.45749 1.96443 
0.58179 -0.38099 1.98602 
0.53947 -0.29775 1.98327 
0.58624 -0.21821 2.00064 
0.54253 -0.13615 1.99936 
0.59005 -0.05607 2.01326 
0.54414 0.02474 2.01175 
0.58945 0.10474 2.02595 
0.54177 0.18588 2.02287 
0.58428 0.26718 2.03696 
0.53762 0.34828 2.03078 
0.57848 0.43006 2.04675 
0.53257 0.50964 2.03584 
0.57741 0.58312 2.05354 
0.56741 0.65692 2.04512 
0.60508 -0.59997 1.94820 
0.65137 -0.51476 1.95713 
0.62396 -0.45550 1.96135 
0.66692 -0.37671 1.97157 
0.62122 -0.30116 1.97467 
0.66445 -0.21995 1.99068 
0.62680 -0.13635 1.98859 
0.67067 -0.05721 2.00506 
0.62944 0.02599 2.00128 
0.66996 0.10799 2.01805 
0.62543 0.18832 2.01363 
0.66256 0.27089 2.02857 
0.61852 0.35319 2.02436 
0.66494 0.42903 2.03360 
0.62298 0.50743 2.03445 
0.65250 0.58098 2.03974 
0.70175 -0.44642 1.96723 
0.73961 -0.37421 1.96771 
0.71168 -0.30200 1.98583 
0.74660 -0.22113 1.97553 
0.72607 -0.13477 1.99921 
0.75981 -0.05421 1.99130 
0.71170 0.02571 2.00831 
0.75888 0.10782 2.00375 
0.72464 0.18582 2.02464 
0.74431 0.27485 2.01462 
0.70915 0.35306 2.03696 
0.73806 0.42678 2.02997 
0.70227 0.49981 2.03999 
0.78525 -0.28602 1.97892 
0.80524 -0.17770 1.98878 
0.80340 -0.11146 1.99355 
0.83159 -0.02659 1.99759 
0.78201 0.02568 2.01352 
0.83100 0.08032 2.00554 
0.80199 0.16438 2.01511 
0.80307 0.23037 2.02136 
0.78273 0.33834 2.02833 
0.91878 0.39477 2.00000 
0.00000 0.00000 -1.50000 
CELLS 1023 3068
2 0 5
2 0 6
2 0 7
2 0 20
2 1 2
2 1 7
2 1 8
2 1 9
2 2 9
2 2 10
2 2 11
2 3 11
2 3 12
2 3 13
2 3 24
2 4 5
2 4 16
2 4 17
2 4 18
2 5 6
2 5 18
2 6 18
2 6 19
2 6 20
2 7 8
2 7 20
2 8 9
2 8 20
2 8 21
2 8 22
2 9 10
2 9 22
2 10 11
2 10 22
2 10 23
2 10 24
2 11 24
2 12 13
2 12 24
2 12 25
2 12 26
2 13 14
2 13 26
2 14 26
2 14 27
2 14 28
2 15 16
2 15 31
2 15 32
2 15 33
2 16 17
2 16 33
2 17 18
2 17 33
2 17 34
[...]
CELL_DATA 1023
SCALARS Strain double 
LOOKUP_TABLE default 
438.17464
313.31096
389.66804
220.32439
269.61160
415.22652
146.23360
192.14278
121.44445
178.18882
218.25690
186.65909
149.66849
220.79146
162.62110
351.48943
227.51434
189.81444
150.49234
170.35382
282.30034
224.46442
208.61139
228.28485
319.35353
192.49466
173.20971
182.20593
250.60005
255.79943
214.89094
180.44626
117.86522
159.85065
196.45335
202.91379
181.14773
147.28367
181.02097
155.24327
177.69444
200.93979
147.53894
156.00520
140.21912
166.99303
182.66222
197.02441
153.97058
136.61118
154.90351
165.94790
203.17241
195.52125
190.25049
167.81567
181.63818
209.42150
229.46923
150.43048
200.28176
246.11189
168.94095
180.78745
178.90040
237.95320
203.79314
149.83157
192.34886
197.61730
176.60679
182.26458
195.14930
179.21777
219.11678
209.04266
186.49051
169.75340
164.33249
195.07606
178.53782
181.53229
160.23818
176.73230
175.57957
178.69257
188.94296
158.41352
158.99623
152.10557
227.99954
144.17238
157.52121
128.81942
134.21684
132.69640
185.21894
179.50466
181.63808
173.88795
166.87353
178.89137
179.74205
185.67303
199.01198
189.68379
204.83776
207.54111
189.60706
173.36882
184.05971
202.13509
187.67813
130.49721
205.64068
202.62514
181.14612
176.95213
174.17038
204.92181
176.56184
190.54229
196.87443
182.97228
186.93096
187.89883
178.76849
178.46620
190.47472
187.93821
180.26749
161.89869
176.39986
181.39850
185.08133
185.49350
180.44421
180.39808
173.42081
183.37657
148.23667
160.29735
149.18434
167.06741
152.60286
167.37626
179.13876
181.13435
185.34437
180.76258
177.90122
178.94841
191.30400
167.40997
179.04376
191.07918
191.31398
201.35428
191.31778
191.00323
177.56889
158.12122
192.00141
200.94253
172.97383
207.39986
191.17998
149.31910
179.39572
164.02011
189.79171
187.42706
195.30905
187.55795
176.06989
181.53798
193.47049
179.61826
184.06081
183.21371
185.39455
196.74525
188.88308
176.73085
181.44122
172.45238
191.10435
205.68352
187.84190
189.31981
179.14981
198.84095
181.22004
185.89800
145.77396
140.36753
209.70174
127.29753
125.74530
172.71815
106.78112
183.06672
175.71166
177.08836
175.10686
184.73216
181.90045
190.78795
183.70293
185.77767
186.42647
178.71892
178.61677
189.45309
189.29426
190.66529
178.61285
184.38449
184.87377
187.93049
191.97137
188.10824
174.70526
191.57285
193.36057
186.57121
188.09279
179.43294
175.95092
188.66414
196.96715
189.51665
174.64691
182.96546
187.52811
183.68330
189.63142
191.53364
181.24236
186.59233
183.60279
185.37647
187.16620
188.96100
189.56998
190.50680
176.86071
173.86282
192.48009
188.94564
203.62717
142.68015
177.67082
175.03773
141.74363
161.30317
178.25752
230.38156
153.56318
161.83665
185.90601
188.06692
207.80885
193.78585
188.14154
180.16558
182.44118
179.96176
175.89299
185.69930
189.51751
184.07856
184.17393
182.00633
174.44747
187.67267
189.16388
176.57034
186.84504
183.40032
172.58228
186.87085
187.56965
169.59313
191.38938
185.77350
171.46884
184.64437
181.89369
169.71069
194.39712
188.80749
173.41017
181.43163
177.44718
183.31095
189.09386
187.88649
181.27535
183.18385
183.40915
182.30371
190.12082
186.24641
177.73355
185.18577
189.13547
174.37254
202.80293
188.23262
171.34904
189.89669
195.51300
177.85126
174.22220
137.34090
174.72636
164.85619
141.85757
212.48666
151.65754
187.80501
165.49541
173.78958
177.71704
181.79641
190.31577
190.62658
164.10130
187.15315
194.26760
181.90070
185.88603
185.75863
189.62810
187.50327
188.09321
184.42291
186.83582
182.86082
188.78260
187.24791
188.07541
186.80720
189.16219
180.32208
187.94939
186.84298
188.15131
189.75954
190.63007
178.90184
186.30187
183.91437
188.22003
191.78678
192.92912
180.44369
181.83614
178.79878
189.13806
189.87937
194.94096
185.15656
176.24398
180.34416
190.68616
191.91739
194.62190
185.30182
175.81848
182.87698
190.31434
195.53991
198.22680
183.31374
179.75593
216.26313
189.45378
159.55041
219.82711
179.70010
186.02951
244.48034
187.88158
155.43722
151.33311
158.47753
174.17278
166.63512
187.50233
172.59305
181.03910
181.40646
184.99713
183.40934
182.11375
183.42569
187.20461
187.98787
187.10560
173.75068
184.32006
184.15800
185.68973
186.91272
186.31221
170.01271
184.89058
185.09676
185.85250
186.15844
185.47685
169.45705
185.95654
185.67262
186.41617
185.25105
183.97214
169.69465
187.28258
186.98771
186.94271
183.42613
182.05311
172.70764
186.76109
187.36988
187.69895
181.46084
181.69761
178.20452
185.92720
186.29204
189.23971
181.31974
180.88678
179.16831
187.81902
185.42209
189.11691
183.04181
182.65634
175.75652
181.61115
182.18015
178.79729
165.24540
234.65023
121.51462
124.37552
145.15465
176.78334
183.53085
192.55797
184.34630
160.70790
181.84835
182.04301
183.96103
184.56529
185.42956
179.85318
186.40018
189.94385
186.84236
188.69208
185.00625
170.74401
186.93195
190.02766
185.24157
189.61472
185.04575
169.27903
186.39568
188.89131
185.03606
190.42117
185.22203
169.79142
185.26578
186.91096
184.96217
191.41460
185.68572
170.66106
183.91988
183.81047
186.08010
191.49608
186.45824
172.90950
182.99204
181.01397
187.54756
187.85539
186.06331
176.74282
183.43835
183.49717
187.76674
177.92434
185.45015
178.49721
186.26580
206.64418
182.09756
195.67797
189.58313
150.70269
184.54521
141.54233
203.70250
159.97436
248.74186
123.66826
116.66784
150.09562
148.16892
127.15263
184.52144
182.14205
182.47201
170.16758
183.42524
197.56038
187.10881
181.92717
185.20645
177.23468
187.99378
189.44017
186.60683
182.66401
184.86359
186.05293
187.79602
191.94319
186.54698
181.33743
184.74711
186.59155
188.03311
191.17930
185.90282
181.96448
184.96026
187.20570
188.53999
189.35549
184.74949
182.58596
185.50015
188.26111
188.60852
187.04598
183.73806
183.13614
185.62160
189.50297
189.04400
184.32975
183.29949
183.96504
185.33354
189.90043
189.64217
180.77951
184.41170
185.20163
186.53521
190.28556
189.17016
171.76948
189.59638
180.76638
184.47268
210.28665
182.22154
192.39253
160.47193
203.41111
140.71283
233.62323
159.63364
192.83957
157.05356
172.77861
171.06722
178.87281
176.24194
189.33199
187.78128
186.77334
182.81812
186.47741
185.43048
177.90993
184.42834
188.15328
173.43574
185.20182
185.85241
175.80598
186.45904
188.57177
172.33839
184.85799
184.66392
176.14801
186.16858
187.43561
172.89338
185.17668
184.25085
176.78252
185.56150
185.85337
173.52542
185.91811
184.41811
177.03895
184.85770
184.66929
174.08264
186.40740
184.65659
177.60508
184.59769
184.13263
175.13230
184.93624
183.70051
178.18401
185.38569
184.22194
177.21949
184.69434
181.78652
179.55791
188.32976
181.38306
175.73843
178.86812
182.05411
178.75143
245.10000
164.92609
160.57032
228.21329
151.62095
195.55357
178.87579
156.82180
172.88620
209.47126
181.33121
190.39112
193.02054
184.87400
186.43347
173.83422
189.73824
191.12447
188.25531
184.31956
185.07227
176.55830
191.91441
191.17037
188.87372
184.29073
184.04529
178.16547
191.04033
189.53108
189.40907
185.19031
184.75960
178.83212
189.40470
188.21600
189.62105
186.02898
186.00006
178.57974
188.35451
187.43102
189.42340
185.97067
186.79232
177.78720
188.53412
188.61450
188.90663
183.64395
186.59543
175.48814
192.03546
193.85522
188.73176
183.77794
186.20952
171.76201
195.88722
217.44787
189.36620
184.66782
218.45815
165.37008
160.13043
187.29557
152.58330
174.10425
163.79108
185.53244
196.46075
164.92388
180.87561
186.97887
180.19316
171.94060
185.87418
184.33968
187.97706
187.77106
185.40109
169.80094
184.70209
184.27644
187.54781
188.34574
186.03384
170.17865
183.96470
183.57839
187.40470
187.39279
185.73021
170.50010
183.98447
183.95206
187.51297
186.57406
185.18980
170.58211
184.37142
184.64441
187.21650
185.91937
185.69148
170.01471
185.15254
185.97197
186.80290
186.60876
187.09889
169.36401
185.59487
187.54398
185.97641
189.50746
189.55315
167.56154
189.73671
190.39185
187.59865
202.36785
175.90802
172.78200
142.56723
196.04925
138.01642
213.49888
109.54313
125.97118
177.82977
134.13646
172.01143
170.39664
187.05216
177.10987
184.22169
180.78834
172.26227
183.66975
194.30956
180.72544
183.21482
185.01701
166.60566
185.43620
194.57604
183.15831
184.02112
183.98017
165.77996
185.85368
192.35267
184.86448
186.55274
183.59792
167.09197
185.22606
189.68626
185.01974
189.89469
184.34869
166.33578
185.05640
188.25285
183.59689
192.70459
185.56980
163.37573
186.15563
188.21728
180.88966
195.36115
186.67682
163.89897
187.92474
192.40399
177.23868
206.39556
190.07974
179.46531
175.33581
175.37578
178.58339
178.14623
142.37366
143.44850
209.99907
148.66431
158.80676
155.72614
161.51958
184.79143
177.23505
180.84986
166.64930
180.58540
184.81478
184.10763
184.48084
184.61601
181.21627
185.33661
193.76187
184.57640
180.87382
183.86749
183.60866
187.97892
192.99501
184.73861
179.26768
183.45720
184.79975
189.37733
188.71803
184.23051
179.69012
184.45723
189.27645
189.17539
184.55431
184.88460
178.84679
185.56854
195.41776
187.08137
181.80669
185.68579
180.70730
189.05702
200.43396
185.33734
175.27720
199.60307
185.31942
186.10713
179.72053
208.35486
183.17060
188.71038
140.72181
146.20298
134.37913
141.08444
176.04960
138.47923
177.96622
142.06966
145.82690
180.02359
180.85953
171.81542
185.85621
177.20286
171.91054
178.51930
186.78661
163.55456
184.96864
186.39976
156.72452
183.29459
187.29774
168.90788
184.90334
182.34371
161.09395
182.61690
185.05927
170.90087
187.31911
182.41303
160.92374
182.65558
184.64310
167.40648
186.53100
182.92178
156.64110
185.85630
184.60522
161.61594
184.03565
178.03822
173.93139
179.19278
174.75794
179.89467
148.88852
179.78841
151.76347
227.35790
193.76853
129.84610
169.99272
179.64491
156.07262
175.71420
155.08345
144.66762
175.50995
185.76710
181.29497
182.41403
188.59940
166.09644
209.94611
182.94689
198.71076
184.87045
189.98677
179.48132
184.14065
184.97053
164.12374
182.91652
184.55666
179.13243
189.70494
182.50579
198.69869
185.88118
209.75628
165.04461
188.67321
177.79350
182.00062
176.84416
174.92352
145.47967
159.54457
157.86293
158.68856
189.42122
162.06513
158.04775
198.86624
176.38208
150.20088
182.72591
150.21041
147.32924
174.39794
180.31732
160.91752
188.63750
142.97949
153.33090
170.68258
188.61801
139.99148
174.43164
170.78188
153.40842
143.03636
182.43854
160.66918
179.50926
176.22972
147.00564
149.93165
157.97604
150.06119
162.89090
197.19365
220.18568
131.85965
178.04751
146.56127
213.42209
146.65923
177.86623
131.58733
219.17413
0.10000
