# vtk DataFile Version 3.0
Point representing Sub_cellular elem model
ASCII

DATASET UNSTRUCTURED_GRID
POINTS 364 float
-0.64907 -0.02875 1.94338 
-0.83215 -0.12512 2.02866 
-0.84815 0.00950 2.01661 
-0.81767 0.20985 2.01655 
-0.77566 -0.32821 1.88916 
-0.82063 -0.15797 1.88368 
-0.73795 -0.15671 1.90183 
-0.63909 -0.20732 2.02428 
-0.76393 -0.10689 1.99945 
-0.80538 -0.03281 2.00947 
-0.78488 0.07182 2.00325 
-0.82424 0.11680 2.01102 
-0.75976 0.25627 2.00596 
-0.79708 0.31869 2.02034 
-0.75304 0.40949 2.02034 
-0.66651 -0.50184 1.90114 
-0.71948 -0.42683 1.90196 
-0.68898 -0.35656 1.91613 
-0.74168 -0.26861 1.92144 
-0.66466 -0.22141 1.94272 
-0.68882 -0.12824 1.99494 
-0.66285 -0.03680 1.98331 
-0.73041 0.01373 2.01159 
-0.69076 0.10081 1.99861 
-0.74803 0.16636 2.01530 
-0.68182 0.25437 2.01433 
-0.72532 0.33625 2.02655 
-0.68276 0.41518 2.02138 
-0.71999 0.48612 2.03020 
-0.67222 0.56815 2.02962 
-0.58260 -0.65082 1.89812 
-0.61194 -0.58452 1.89982 
-0.59561 -0.52337 1.92377 
-0.63871 -0.44107 1.91724 
-0.60081 -0.37318 1.94896 
-0.64114 -0.29254 1.94310 
-0.57226 -0.22625 1.98154 
-0.58623 -0.13060 1.97249 
-0.56263 -0.04506 2.00563 
-0.63311 0.02947 1.99429 
-0.59397 0.10573 2.01328 
-0.64438 0.17828 2.00421 
-0.59995 0.25859 2.02396 
-0.63515 0.34064 2.01322 
-0.59559 0.41922 2.03480 
-0.64098 0.49468 2.02419 
-0.59694 0.57172 2.04307 
-0.50511 -0.66646 1.90347 
-0.54673 -0.59743 1.90741 
-0.50457 -0.52797 1.92922 
-0.55000 -0.44904 1.93019 
-0.50126 -0.37793 1.95581 
-0.53792 -0.30198 1.95589 
-0.47956 -0.22211 1.97684 
-0.52275 -0.13681 1.98423 
-0.47244 -0.04981 1.99384 
-0.53069 0.03683 1.99285 
-0.49510 0.10996 2.00702 
-0.55045 0.18616 2.00514 
-0.50474 0.26465 2.01513 
-0.55376 0.34044 2.01585 
-0.50323 0.42494 2.02521 
-0.55048 0.50022 2.02490 
-0.50794 0.59394 2.03394 
-0.58794 0.64542 2.03574 
-0.52461 0.68224 2.04026 
-0.46771 -0.73153 1.90285 
-0.42348 -0.68563 1.91025 
-0.46093 -0.61030 1.93174 
-0.41408 -0.53462 1.93367 
-0.45866 -0.45728 1.95909 
-0.40539 -0.38057 1.95910 
-0.44604 -0.30451 1.98414 
-0.40029 -0.22040 1.98131 
-0.43855 -0.13909 2.00395 
-0.39761 -0.05421 1.99678 
-0.43861 0.03043 2.01731 
-0.40105 0.11152 2.00530 
-0.45511 0.18709 2.02424 
-0.41274 0.26797 2.01398 
-0.46045 0.34474 2.03287 
-0.41653 0.42705 2.02336 
-0.45827 0.50780 2.04381 
-0.41682 0.59345 2.03304 
-0.45580 0.66973 2.05046 
-0.43558 0.73840 2.04453 
-0.34262 -0.78799 1.90668 
-0.40467 -0.73553 1.90457 
-0.33429 -0.70131 1.92698 
-0.37323 -0.61645 1.93234 
-0.32135 -0.54146 1.95734 
-0.36508 -0.46087 1.95997 
-0.31315 -0.38426 1.98260 
-0.35624 -0.30231 1.98168 
-0.30839 -0.22299 2.00312 
-0.35075 -0.13933 1.99811 
-0.30614 -0.05846 2.01701 
-0.35037 0.02666 2.00998 
-0.30854 0.10609 2.02748 
-0.36091 0.18826 2.02033 
-0.31864 0.26562 2.03418 
-0.36832 0.34639 2.02750 
-0.32339 0.42560 2.04193 
-0.36970 0.50902 2.03620 
-0.32354 0.59086 2.05068 
-0.36763 0.68248 2.04388 
-0.30553 0.75745 2.05723 
-0.37252 0.77170 2.04758 
-0.23712 -0.83545 1.90885 
-0.26850 -0.76612 1.90618 
-0.23117 -0.69391 1.93820 
-0.28274 -0.61885 1.93133 
-0.23309 -0.54418 1.95991 
-0.27265 -0.46183 1.95613 
-0.22546 -0.38434 1.98165 
-0.26758 -0.30178 1.97818 
-0.22163 -0.22267 2.00022 
-0.26553 -0.13977 1.99563 
-0.21997 -0.05956 2.01330 
-0.26515 0.02419 2.00709 
-0.22145 0.10390 2.02402 
-0.26890 0.18740 2.01604 
-0.22754 0.26563 2.03198 
-0.27680 0.34679 2.02241 
-0.23410 0.42511 2.03872 
-0.28220 0.50826 2.03021 
-0.23759 0.58709 2.04599 
-0.28044 0.67524 2.03906 
-0.22316 0.76635 2.05378 
-0.27933 0.82361 2.05114 
-0.14298 -0.84107 1.91019 
-0.18177 -0.77509 1.92523 
-0.13625 -0.70049 1.92678 
-0.18708 -0.62502 1.95029 
-0.14007 -0.54481 1.95128 
-0.18033 -0.46655 1.97609 
-0.13398 -0.38475 1.97267 
-0.17507 -0.30552 1.99745 
-0.13144 -0.22288 1.99120 
-0.17287 -0.14298 2.01440 
-0.13042 -0.06052 2.00502 
-0.17256 0.02019 2.02621 
-0.13120 0.10212 2.01488 
-0.17594 0.18240 2.03530 
-0.13486 0.26334 2.02354 
-0.18317 0.34165 2.04219 
-0.14136 0.42201 2.03039 
-0.18882 0.50027 2.04930 
-0.14625 0.57956 2.03617 
-0.18786 0.66176 2.05678 
-0.13853 0.73752 2.04064 
-0.18985 0.85373 2.05357 
-0.06727 -0.82915 1.91731 
-0.09881 -0.77887 1.93167 
-0.04663 -0.70726 1.94115 
-0.09510 -0.62492 1.95774 
-0.04749 -0.54777 1.96783 
-0.09298 -0.46753 1.97862 
-0.04215 -0.38749 1.98920 
-0.08955 -0.30574 1.99742 
-0.03937 -0.22504 2.00693 
-0.08764 -0.14310 2.01295 
-0.03818 -0.06249 2.02140 
-0.08723 0.01962 2.02463 
-0.03879 0.09982 2.03168 
-0.08910 0.18177 2.03455 
-0.04212 0.26110 2.04059 
-0.09357 0.34241 2.04265 
-0.04779 0.42091 2.04737 
-0.09873 0.50041 2.04900 
-0.05273 0.58025 2.05316 
-0.09964 0.65638 2.05609 
-0.04927 0.74711 2.05879 
-0.11371 0.82136 2.06155 
-0.07539 0.88135 2.05800 
-0.00773 -0.84858 1.91925 
0.05276 -0.83347 1.92238 
-0.00755 -0.78900 1.92177 
0.03456 -0.71011 1.94725 
-0.00374 -0.62665 1.94396 
0.04291 -0.54961 1.97175 
0.00010 -0.46711 1.96622 
0.04369 -0.38816 1.99222 
0.00272 -0.30505 1.98499 
0.04575 -0.22528 2.00908 
0.00451 -0.14252 2.00033 
0.04721 -0.06260 2.02320 
0.00499 0.01958 2.01271 
0.04703 0.09971 2.03359 
0.00361 0.18142 2.02200 
0.04483 0.26147 2.04261 
-0.00012 0.34229 2.03019 
0.04104 0.42236 2.04988 
-0.00530 0.50192 2.03568 
0.03699 0.58226 2.05448 
-0.00962 0.66241 2.04053 
0.02656 0.74850 2.05956 
-0.01273 0.83175 2.04841 
0.04948 0.88221 2.05854 
0.12669 -0.84451 1.91826 
0.08286 -0.77924 1.93306 
0.12541 -0.70338 1.93417 
0.08627 -0.62630 1.95946 
0.13621 -0.54690 1.95751 
0.09100 -0.46776 1.97935 
0.13684 -0.38509 1.97737 
0.09305 -0.30542 1.99744 
0.13898 -0.22259 1.99380 
0.09512 -0.14292 2.01290 
0.14067 -0.06061 2.00769 
0.09592 0.01914 2.02510 
0.14068 0.10092 2.01887 
0.09474 0.18072 2.03491 
0.13860 0.26218 2.02724 
0.09142 0.34156 2.04323 
0.13507 0.42269 2.03424 
0.08686 0.50084 2.04879 
0.13068 0.58174 2.03822 
0.07976 0.65728 2.05613 
0.11611 0.73976 2.04230 
0.08819 0.82296 2.06196 
0.22320 -0.83878 1.92497 
0.16863 -0.78056 1.93797 
0.21888 -0.69676 1.94987 
0.17826 -0.63003 1.96122 
0.22523 -0.54686 1.96719 
0.17809 -0.46866 1.98431 
0.22483 -0.38473 1.98624 
0.17955 -0.30563 2.00278 
0.22721 -0.22219 2.00172 
0.18194 -0.14295 2.01762 
0.22917 -0.06023 2.01596 
0.18302 0.01927 2.03061 
0.22933 0.10169 2.02684 
0.18212 0.18126 2.04041 
0.22747 0.26370 2.03573 
0.17934 0.34286 2.04827 
0.22414 0.42626 2.04313 
0.17571 0.50398 2.05488 
0.21981 0.59067 2.04938 
0.16760 0.66617 2.05989 
0.19939 0.77060 2.05614 
0.16387 0.85636 2.05565 
0.32910 -0.79540 1.93213 
0.25698 -0.77045 1.92374 
0.32318 -0.70975 1.94910 
0.27398 -0.62422 1.94667 
0.31229 -0.54693 1.97417 
0.27109 -0.46328 1.96773 
0.31327 -0.38436 1.99364 
0.27287 -0.30108 1.98595 
0.31641 -0.22186 2.00983 
0.27565 -0.13928 2.00124 
0.31872 -0.05967 2.02411 
0.27682 0.02218 2.01400 
0.31878 0.10267 2.03465 
0.27584 0.18410 2.02389 
0.31644 0.26564 2.04431 
0.27276 0.34685 2.03170 
0.31188 0.42997 2.05185 
0.26885 0.51167 2.03856 
0.30552 0.59749 2.05775 
0.26029 0.68021 2.04338 
0.28211 0.76392 2.06183 
0.25415 0.82968 2.05490 
0.39571 -0.74699 1.93439 
0.41260 -0.69488 1.94016 
0.36028 -0.62343 1.95318 
0.40494 -0.54074 1.95648 
0.35640 -0.46350 1.97226 
0.40567 -0.37921 1.97553 
0.35842 -0.30129 1.98880 
0.40910 -0.21776 1.99347 
0.36134 -0.13927 2.00419 
0.41145 -0.05665 2.00753 
0.36257 0.02288 2.01644 
0.41141 0.10475 2.01820 
0.36128 0.18552 2.02672 
0.40880 0.26735 2.02751 
0.35782 0.34934 2.03528 
0.40374 0.43205 2.03458 
0.35288 0.51555 2.04359 
0.39833 0.60088 2.04143 
0.34637 0.69025 2.04959 
0.41319 0.74778 2.05091 
0.34915 0.77994 2.05284 
0.45901 -0.74374 1.93901 
0.49762 -0.67964 1.94100 
0.44869 -0.62022 1.96212 
0.49150 -0.53789 1.95813 
0.44668 -0.46246 1.98195 
0.48942 -0.38078 1.97394 
0.44992 -0.30060 1.99890 
0.49238 -0.21863 1.98969 
0.45370 -0.13842 2.01449 
0.49538 -0.05620 2.00330 
0.45503 0.02341 2.02656 
0.49500 0.10614 2.01498 
0.45299 0.18577 2.03719 
0.49093 0.26986 2.02587 
0.44811 0.35019 2.04623 
0.48613 0.43473 2.03532 
0.44141 0.51651 2.05383 
0.48849 0.60435 2.04255 
0.43482 0.67930 2.05853 
0.50349 0.69329 2.04799 
0.57426 -0.66395 1.94628 
0.53587 -0.60828 1.94766 
0.58169 -0.53529 1.96789 
0.53765 -0.45747 1.96439 
0.58179 -0.38099 1.98605 
0.53947 -0.29774 1.98325 
0.58623 -0.21821 2.00067 
0.54252 -0.13614 1.99936 
0.59005 -0.05607 2.01329 
0.54413 0.02474 2.01177 
0.58944 0.10474 2.02598 
0.54176 0.18588 2.02291 
0.58428 0.26718 2.03701 
0.53761 0.34828 2.03083 
0.57848 0.43005 2.04682 
0.53257 0.50964 2.03592 
0.57741 0.58311 2.05363 
0.56741 0.65691 2.04522 
0.60506 -0.59994 1.94828 
0.65139 -0.51476 1.95715 
0.62395 -0.45552 1.96144 
0.66693 -0.37671 1.97157 
0.62122 -0.30118 1.97473 
0.66445 -0.21995 1.99069 
0.62680 -0.13636 1.98864 
0.67066 -0.05722 2.00508 
0.62944 0.02599 2.00131 
0.66994 0.10799 2.01809 
0.62543 0.18833 2.01367 
0.66255 0.27089 2.02864 
0.61853 0.35319 2.02442 
0.66494 0.42903 2.03369 
0.62298 0.50743 2.03453 
0.65250 0.58097 2.03985 
0.70174 -0.44642 1.96728 
0.73962 -0.37422 1.96778 
0.71168 -0.30200 1.98588 
0.74661 -0.22113 1.97560 
0.72607 -0.13478 1.99927 
0.75982 -0.05422 1.99137 
0.71169 0.02570 2.00839 
0.75889 0.10782 2.00383 
0.72463 0.18582 2.02471 
0.74432 0.27485 2.01469 
0.70915 0.35306 2.03704 
0.73806 0.42678 2.03006 
0.70227 0.49980 2.04009 
0.78525 -0.28603 1.97897 
0.80525 -0.17770 1.98884 
0.80340 -0.11149 1.99361 
0.83161 -0.02661 1.99767 
0.78201 0.02568 2.01355 
0.83103 0.08033 2.00563 
0.80200 0.16440 2.01518 
0.80307 0.23036 2.02145 
0.78273 0.33833 2.02843 
0.91878 0.39477 2.00000 
0.00000 0.00000 -1.50000 
CELLS 1023 3068
2 0 5
2 0 6
2 0 7
2 0 20
2 1 2
2 1 7
2 1 8
2 1 9
2 2 9
2 2 10
2 2 11
2 3 11
2 3 12
2 3 13
2 3 24
2 4 5
2 4 16
2 4 17
2 4 18
2 5 6
2 5 18
2 6 18
2 6 19
2 6 20
2 7 8
2 7 20
2 8 9
2 8 20
2 8 21
2 8 22
2 9 10
2 9 22
2 10 11
2 10 22
2 10 23
2 10 24
2 11 24
2 12 13
2 12 24
2 12 25
2 12 26
2 13 14
2 13 26
2 14 26
2 14 27
2 14 28
2 15 16
2 15 31
2 15 32
2 15 33
2 16 17
2 16 33
2 17 18
2 17 33
2 17 34
[...]
CELL_DATA 1023
SCALARS Strain double 
LOOKUP_TABLE default 
444.84967
321.49083
391.58667
236.80597
271.19731
418.75373
151.83344
195.03181
120.15603
178.60560
219.15553
185.87928
148.94388
220.68562
163.21430
351.31623
227.44707
189.21099
150.63888
168.31129
281.12229
226.33286
210.94659
217.11542
323.27643
194.82303
169.94936
155.43898
247.11691
250.55121
212.59073
175.52345
119.53412
159.14724
196.19421
203.36559
181.00698
147.26935
181.30402
155.82090
177.95206
200.83174
147.27541
156.13238
140.05016
167.06536
182.65818
197.15199
153.95050
136.47332
154.82343
165.85967
204.33923
195.68762
190.08109
167.68750
184.61661
210.19186
218.01478
148.82452
199.66689
246.25848
190.53062
209.09420
176.96499
242.18985
205.00820
145.92703
192.11596
199.14574
176.26260
182.65777
195.02943
179.93636
219.27519
208.85259
186.02739
169.81138
164.09283
195.17836
178.65845
181.50427
160.20043
176.64896
175.57499
178.70293
188.85488
158.39050
159.03702
152.11458
228.00729
144.04613
157.46721
128.98273
134.34778
132.81997
185.25214
179.47629
181.63686
173.88410
166.95253
178.99507
179.71949
185.41436
198.78398
189.48851
205.07085
207.86737
193.16793
173.05156
184.82543
203.52214
188.45040
128.69848
205.39557
203.61383
181.17077
176.64039
174.57890
204.38922
176.61386
190.52196
197.31854
182.63051
186.75303
187.52449
178.85843
178.44362
190.60847
187.67288
180.17595
161.86296
176.40347
181.36294
185.06279
185.48060
180.45081
180.35695
173.36776
183.37200
148.21559
160.39181
149.11342
167.25084
152.67752
167.25332
179.19720
181.15405
185.42759
180.69896
177.86571
178.87675
191.32463
167.66401
179.24095
190.93027
191.27717
201.23870
191.33011
190.79124
177.52044
157.84051
191.96815
200.92201
172.02039
207.80758
191.05244
149.02561
179.38610
164.10272
189.97331
187.39424
195.17658
187.16163
176.15550
181.76231
193.47333
179.52571
184.06835
183.13719
185.44509
196.79298
188.88994
176.76285
181.42130
172.48597
191.17647
205.64367
187.85379
189.29800
179.15245
198.84572
181.23954
185.91747
145.77434
140.36258
209.70494
127.36015
125.39563
172.65114
106.26992
183.17354
175.61493
177.05931
174.84676
184.65011
181.93123
190.88205
183.73391
185.77295
186.30273
178.60833
178.70448
189.50943
189.27398
190.59278
178.71692
184.33866
185.01037
187.96893
191.94399
188.03208
174.99617
191.52742
193.36480
186.54788
188.16886
179.32071
176.24936
188.66023
196.89287
189.56994
174.80385
182.75777
187.57114
183.68695
189.58506
191.55174
181.27078
186.54912
183.61158
185.35264
187.11489
188.96045
189.55046
190.52260
176.80538
173.82841
192.47736
188.94795
203.58853
142.66802
177.66065
175.01301
141.75597
161.55948
177.83607
230.40678
153.56657
161.80083
186.03789
188.32571
206.98076
193.68801
188.09949
180.05967
182.45015
179.64493
175.68905
185.70850
189.56111
184.02881
184.17784
181.84478
174.39349
187.66319
189.16965
176.45862
186.80351
183.34198
172.62417
186.81219
187.55756
169.50850
191.36244
185.74132
171.52326
184.56612
181.90681
169.59673
194.39660
188.80271
173.38749
181.34913
177.47313
183.22658
189.13100
187.90239
181.25299
183.14887
183.40470
182.32817
190.16342
186.23854
177.70090
185.19179
189.13940
174.43163
202.82313
188.20799
171.31952
189.92277
195.51993
177.84721
174.24262
137.32859
174.70614
164.84919
141.84462
212.47546
151.29521
187.63878
166.04066
173.72044
177.51001
181.64456
190.82087
190.67616
164.36284
187.22883
194.41798
181.88919
186.02120
185.83411
189.50457
187.48790
188.14745
184.49602
186.89063
182.83740
188.76078
187.22156
188.14435
186.83987
189.15365
180.27380
187.97331
186.84928
188.20417
189.72762
190.61801
178.87562
186.33619
183.94611
188.25531
191.73790
192.92685
180.45163
181.86569
178.83538
189.13157
189.83615
194.95788
185.17459
176.21701
180.36354
190.65607
191.87610
194.66498
185.33789
175.76886
182.87458
190.28853
195.52088
198.27363
183.34868
179.71182
216.24715
189.44198
159.52050
219.85599
179.71439
186.03529
244.48467
187.88925
154.99461
152.93994
157.50323
173.81094
165.58069
186.95464
172.99421
181.01680
181.89117
184.95125
183.57608
181.88222
183.19351
187.19970
188.08301
187.14537
173.78899
184.25824
184.13158
185.69625
186.93197
186.30745
170.03606
184.88420
185.10772
185.85942
186.15450
185.45186
169.47510
185.96617
185.67809
186.40428
185.24391
183.94676
169.69621
187.29737
186.97933
186.91226
183.42541
182.04240
172.70011
186.77173
187.35572
187.65519
181.46764
181.70372
178.20885
185.92171
186.27943
189.20385
181.32763
180.90543
179.17512
187.80447
185.41199
189.10045
183.05108
182.67659
175.76777
181.60214
182.18126
178.80009
165.24605
234.65447
121.12965
124.33103
143.19490
177.21175
183.70800
192.94252
184.31356
161.94145
181.69787
181.43968
183.80491
184.72875
185.61783
180.00521
186.31346
189.79972
186.79762
188.70762
185.04254
170.79692
186.92083
190.01682
185.21732
189.58585
185.06039
169.30027
186.38642
188.90874
185.02678
190.39426
185.23892
169.80855
185.26023
186.92439
184.97166
191.39942
185.70361
170.68047
183.92021
183.80655
186.10025
191.49455
186.47293
172.93311
182.99807
180.99002
187.56591
187.86599
186.07026
176.76596
183.44643
183.46784
187.78212
177.94460
185.44503
178.51249
186.27585
206.62167
182.11009
195.69181
189.57627
150.70904
184.54980
141.54514
203.70536
159.96844
248.74247
123.84026
118.26572
148.85387
148.73423
124.87488
184.96334
182.26218
182.77260
170.02825
183.07924
197.47549
187.51535
181.67225
185.21512
176.89418
187.84420
189.47361
186.72807
182.68384
184.88356
185.97106
187.74360
191.96760
186.56409
181.36068
184.76487
186.55032
188.01676
191.19654
185.89572
181.95962
184.97295
187.17597
188.53760
189.36388
184.74174
182.55750
185.50671
188.23996
188.61197
187.04309
183.73704
183.09576
185.62362
189.49065
189.04809
184.31633
183.30582
183.92674
185.33235
189.89628
189.64408
180.76143
184.42297
185.17670
186.52894
190.28721
189.16970
171.74738
189.60595
180.75030
184.46876
210.29266
182.22154
192.37878
160.47881
203.41234
140.70979
233.62012
159.00277
192.82201
156.94821
172.97983
170.85080
179.14665
176.08917
189.00839
187.73329
186.64402
183.17714
186.46340
185.45898
178.07782
184.40983
188.10042
173.48766
185.20279
185.91909
175.88440
186.43713
188.55781
172.33544
184.86473
184.70330
176.16576
186.14981
187.43831
172.89518
185.18591
184.27194
176.76754
185.54838
185.86203
173.54106
185.92887
184.42958
177.00981
184.85190
184.67786
174.10777
186.41773
184.66219
177.57466
184.59907
184.13766
175.15957
184.94313
183.70235
178.16127
185.39254
184.22292
177.24100
184.69479
181.78504
179.54535
188.33793
181.38494
175.74903
178.86848
182.04894
178.74816
245.10218
164.92564
160.68906
228.33830
151.46935
195.86619
179.11496
156.87844
172.96573
209.22235
181.30352
190.40016
192.97721
184.78871
186.43450
173.68490
189.66487
191.16500
188.22714
184.27376
185.03382
176.49123
191.92148
191.19269
188.87125
184.26493
184.02619
178.14194
191.06068
189.53791
189.41197
185.17427
184.75315
178.83759
189.42441
188.21351
189.62194
186.01864
186.00269
178.60023
188.36723
187.42271
189.42153
185.96595
186.80018
177.81219
188.53993
188.60157
188.90354
183.64571
186.60398
175.51025
192.03765
193.84076
188.72907
183.78424
186.21594
171.77643
195.88620
217.43699
189.36587
184.66511
218.46334
165.37332
160.13533
187.29610
152.53890
174.03340
163.74464
185.65785
196.40375
164.70794
181.17892
187.08561
180.07940
172.10012
185.93975
184.42123
188.04665
187.78604
185.32106
169.86526
184.75643
184.25697
187.59168
188.34203
185.99405
170.18752
183.99333
183.56531
187.42116
187.38474
185.70948
170.48322
183.99639
183.94308
187.51017
186.56647
185.18028
170.55548
184.37467
184.63496
187.20478
185.91438
185.68960
169.98853
185.15160
185.96255
186.79050
186.60544
187.10259
169.34219
185.59174
187.53701
185.96926
189.50256
189.55857
167.54893
189.73293
190.38905
187.59448
202.36407
175.91300
172.78006
142.57118
196.04932
138.01995
213.50324
109.17323
126.10442
178.02003
133.80716
171.75708
170.56551
187.07155
176.83856
184.16115
180.80550
172.24538
183.59288
194.36461
180.61477
183.17579
185.05546
166.57288
185.38671
194.62493
183.11877
183.99751
184.00950
165.75071
185.83358
192.38352
184.86634
186.54708
183.61006
167.07526
185.22129
189.69926
185.03970
189.90166
184.35186
166.32571
185.05623
188.25349
183.62214
192.71861
185.57001
163.36462
186.15764
188.21236
180.91204
195.37432
186.67358
163.88831
187.92965
192.39810
177.25234
206.40268
190.07668
179.46522
175.33884
175.37574
178.58422
178.14818
142.37291
143.44953
210.00018
148.71918
158.63046
155.81592
161.47347
184.75496
177.35416
180.83325
166.72313
180.51725
184.87560
184.06863
184.55622
184.61456
181.17944
185.31205
193.81094
184.54751
180.90312
183.87296
183.57576
187.97528
193.01640
184.72223
179.24814
183.45510
184.77908
189.38322
188.72180
184.22485
179.65610
184.44928
189.26510
189.18296
184.55044
184.88831
178.80686
185.55601
195.41334
187.09387
181.79810
185.69314
180.68136
189.04673
200.44116
185.34768
175.26361
199.60374
185.31290
186.10610
179.71795
208.36609
183.16933
188.70735
140.72341
146.20478
134.27865
141.12988
176.03801
138.38359
177.98992
141.96791
145.89770
180.00487
180.83150
171.75467
185.87303
177.18922
171.94430
178.48002
186.77712
163.53081
184.98182
186.41531
156.73893
183.27334
187.30846
168.91711
184.91748
182.35839
161.06910
182.61476
185.07460
170.91282
187.32801
182.41966
160.89624
182.65955
184.64895
167.43153
186.53517
182.91635
156.61750
185.86856
184.60470
161.63511
184.03126
178.03229
173.92293
179.20503
174.75807
179.89458
148.88972
179.78267
151.76375
227.35509
193.74556
129.84000
169.97547
179.67606
156.07358
175.69008
155.06095
144.66356
175.51913
185.77143
181.29665
182.40104
188.58561
166.09493
209.95301
182.93722
198.70380
184.86270
189.99600
179.52499
184.14927
184.97440
164.11415
182.89348
184.56931
179.17789
189.70243
182.50911
198.68664
185.86999
209.76891
165.08765
188.66330
177.78413
181.99382
176.85217
174.92479
145.49072
159.53877
157.85382
158.68610
189.42630
162.06896
158.05055
198.85579
176.36997
150.20563
182.72830
150.20854
147.33241
174.39639
180.33859
160.92946
188.67701
142.99618
153.35235
170.67901
188.65763
140.02707
174.43062
170.77910
153.42907
143.04855
182.45186
160.68560
179.53539
176.23915
147.00881
149.93311
157.98811
150.06666
162.88856
197.18821
220.19554
131.81520
178.07908
146.58568
213.47316
146.68385
177.89324
131.54112
219.18771
0.10000
