# vtk DataFile Version 3.0
Point representing Sub_cellular elem model
ASCII

DATASET UNSTRUCTURED_GRID
POINTS 364 float
-0.02269 -0.01133 2.00000 
-0.03130 -0.01041 2.00000 
-0.03737 -0.00904 2.00000 
-0.06112 -0.00057 2.00000 
-0.01786 -0.01188 2.00000 
-0.02008 -0.01167 2.00000 
-0.02084 -0.01078 2.00000 
-0.02636 -0.01092 2.00000 
-0.02797 -0.00924 2.00000 
-0.03284 -0.00879 2.00000 
-0.03761 -0.00755 2.00000 
-0.04595 -0.00460 2.00000 
-0.10444 -0.00600 2.00000 
-0.04254 -0.00813 2.00000 
0.02107 0.00471 2.00000 
-0.01428 -0.01230 2.00000 
-0.01592 -0.01209 2.00000 
-0.01656 -0.01129 2.00000 
-0.01866 -0.01100 2.00000 
-0.01953 -0.00992 2.00000 
-0.02314 -0.00982 2.00000 
-0.02426 -0.00787 2.00000 
-0.02987 -0.00741 2.00000 
-0.03205 -0.00512 2.00000 
-0.04961 -0.00811 2.00000 
-0.03944 -0.01831 2.00000 
-0.01550 -0.00169 1.90863 
0.08140 0.01825 2.00000 
0.04487 0.00851 2.00000 
0.03590 0.01324 2.00000 
-0.01205 -0.01267 2.00000 
-0.01297 -0.01250 2.00000 
-0.01327 -0.01192 2.00000 
-0.01476 -0.01161 2.00000 
-0.01504 -0.01072 2.00000 
-0.01703 -0.01028 2.00000 
-0.01724 -0.00901 2.00000 
-0.02018 -0.00845 2.00000 
-0.01992 -0.00651 2.00000 
-0.02439 -0.00560 2.00000 
-0.02196 -0.00239 2.00000 
-0.02885 0.00047 2.00000 
-0.01049 0.00619 2.00000 
0.01331 0.01328 2.00000 
0.03286 0.00793 2.00000 
0.04162 0.01835 2.00000 
0.03085 0.01695 2.00000 
-0.01106 -0.01249 2.00000 
-0.01207 -0.01222 2.00000 
-0.01207 -0.01159 2.00000 
-0.01341 -0.01116 2.00000 
-0.01333 -0.01021 2.00000 
-0.01505 -0.00961 2.00000 
-0.01465 -0.00826 2.00000 
-0.01688 -0.00741 2.00000 
-0.01554 -0.00547 2.00000 
-0.01812 -0.00410 2.00000 
-0.01392 -0.00126 2.00000 
-0.01429 0.00146 2.00000 
-0.00297 0.00428 2.00000 
0.01005 0.00581 2.00000 
0.01773 0.00971 2.00000 
0.02746 0.01338 2.00000 
0.02357 0.01480 2.00000 
0.02834 0.01364 2.00000 
0.02338 0.01290 2.00000 
-0.01020 -0.01222 2.00000 
-0.00999 -0.01244 2.00000 
-0.01095 -0.01201 2.00000 
-0.01074 -0.01132 2.00000 
-0.01192 -0.01078 2.00000 
-0.01154 -0.00979 2.00000 
-0.01293 -0.00905 2.00000 
-0.01210 -0.00770 2.00000 
-0.01362 -0.00665 2.00000 
-0.01175 -0.00482 2.00000 
-0.01286 -0.00323 2.00000 
-0.00873 -0.00084 2.00000 
-0.00734 0.00160 2.00000 
-0.00021 0.00439 2.00000 
0.00629 0.00837 2.00000 
0.01155 0.01022 2.00000 
0.01865 0.01219 2.00000 
0.01808 0.01336 2.00000 
0.02079 0.01306 2.00000 
0.02060 0.01208 2.00000 
-0.00839 -0.01199 2.00000 
-0.00936 -0.01213 2.00000 
-0.00876 -0.01231 2.00000 
-0.00971 -0.01184 2.00000 
-0.00935 -0.01111 2.00000 
-0.01037 -0.01048 2.00000 
-0.00977 -0.00949 2.00000 
-0.01085 -0.00864 2.00000 
-0.00977 -0.00733 2.00000 
-0.01072 -0.00616 2.00000 
-0.00871 -0.00449 2.00000 
-0.00895 -0.00283 2.00000 
-0.00542 -0.00081 2.00000 
-0.00372 0.00152 2.00000 
0.00117 0.00364 2.00000 
0.00552 0.00671 2.00000 
0.00935 0.00815 2.00000 
0.01383 0.01129 2.00000 
0.01552 0.01078 2.00000 
0.01853 0.01176 2.00000 
0.01858 0.01099 2.00000 
0.01938 0.01146 2.00000 
-0.00747 -0.01187 2.00000 
-0.00786 -0.01212 2.00000 
-0.00762 -0.01225 2.00000 
-0.00845 -0.01170 2.00000 
-0.00798 -0.01095 2.00000 
-0.00883 -0.01026 2.00000 
-0.00810 -0.00929 2.00000 
-0.00890 -0.00837 2.00000 
-0.00773 -0.00715 2.00000 
-0.00826 -0.00591 2.00000 
-0.00634 -0.00443 2.00000 
-0.00615 -0.00277 2.00000 
-0.00324 -0.00109 2.00000 
-0.00160 0.00108 2.00000 
0.00197 0.00270 2.00000 
0.00519 0.00529 2.00000 
0.00827 0.00638 2.00000 
0.01193 0.00879 2.00000 
0.01399 0.00890 2.00000 
0.01688 0.01029 2.00000 
0.01865 0.01024 2.00000 
0.01947 0.01105 2.00000 
-0.00656 -0.01178 2.00000 
-0.00702 -0.01205 2.00000 
-0.00655 -0.01215 2.00000 
-0.00722 -0.01158 2.00000 
-0.00668 -0.01084 2.00000 
-0.00736 -0.01011 2.00000 
-0.00657 -0.00918 2.00000 
-0.00715 -0.00823 2.00000 
-0.00597 -0.00711 2.00000 
-0.00624 -0.00586 2.00000 
-0.00451 -0.00456 2.00000 
-0.00412 -0.00295 2.00000 
-0.00176 -0.00157 2.00000 
-0.00029 0.00043 2.00000 
0.00241 0.00171 2.00000 
0.00500 0.00397 2.00000 
0.00748 0.00489 2.00000 
0.01070 0.00702 2.00000 
0.01289 0.00744 2.00000 
0.01598 0.00896 2.00000 
0.01726 0.01060 2.00000 
0.02090 0.01100 2.00000 
-0.00566 -0.01170 2.00000 
-0.00604 -0.01195 2.00000 
-0.00547 -0.01205 2.00000 
-0.00604 -0.01149 2.00000 
-0.00544 -0.01076 2.00000 
-0.00599 -0.01003 2.00000 
-0.00518 -0.00916 2.00000 
-0.00560 -0.00820 2.00000 
-0.00448 -0.00719 2.00000 
-0.00459 -0.00597 2.00000 
-0.00308 -0.00485 2.00000 
-0.00263 -0.00331 2.00000 
-0.00075 -0.00217 2.00000 
0.00052 -0.00034 2.00000 
0.00255 0.00068 2.00000 
0.00471 0.00273 2.00000 
0.00658 0.00356 2.00000 
0.00959 0.00558 2.00000 
0.01055 0.00825 2.00000 
0.01435 0.00978 2.00000 
0.01686 0.01214 2.00000 
0.01994 0.01191 2.00000 
0.02345 0.01301 2.00000 
-0.00501 -0.01161 2.00000 
-0.00439 -0.01161 2.00000 
-0.00499 -0.01183 2.00000 
-0.00443 -0.01195 2.00000 
-0.00492 -0.01141 2.00000 
-0.00430 -0.01072 2.00000 
-0.00474 -0.01000 2.00000 
-0.00394 -0.00920 2.00000 
-0.00425 -0.00827 2.00000 
-0.00322 -0.00737 2.00000 
-0.00325 -0.00619 2.00000 
-0.00197 -0.00524 2.00000 
-0.00154 -0.00380 2.00000 
-0.00009 -0.00286 2.00000 
0.00098 -0.00119 2.00000 
0.00248 -0.00041 2.00000 
0.00420 0.00152 2.00000 
0.00408 0.00374 2.00000 
0.00689 0.00615 2.00000 
0.00716 0.00921 2.00000 
0.01214 0.01121 2.00000 
0.01498 0.01441 2.00000 
0.02084 0.01451 2.00000 
0.02546 0.01668 2.00000 
-0.00359 -0.01156 2.00000 
-0.00399 -0.01178 2.00000 
-0.00347 -0.01186 2.00000 
-0.00387 -0.01134 2.00000 
-0.00326 -0.01071 2.00000 
-0.00360 -0.01001 2.00000 
-0.00284 -0.00930 2.00000 
-0.00306 -0.00840 2.00000 
-0.00214 -0.00763 2.00000 
-0.00214 -0.00652 2.00000 
-0.00107 -0.00572 2.00000 
-0.00073 -0.00437 2.00000 
0.00035 -0.00358 2.00000 
0.00112 -0.00206 2.00000 
0.00145 -0.00087 2.00000 
0.00231 0.00133 2.00000 
0.00119 0.00341 2.00000 
0.00330 0.00645 2.00000 
0.00181 0.00993 2.00000 
0.00793 0.01283 2.00000 
0.00965 0.01610 2.00000 
0.01784 0.01745 2.00000 
-0.00283 -0.01151 2.00000 
-0.00315 -0.01171 2.00000 
-0.00262 -0.01177 2.00000 
-0.00292 -0.01129 2.00000 
-0.00231 -0.01071 2.00000 
-0.00258 -0.01006 2.00000 
-0.00187 -0.00943 2.00000 
-0.00203 -0.00860 2.00000 
-0.00122 -0.00794 2.00000 
-0.00121 -0.00691 2.00000 
-0.00034 -0.00627 2.00000 
-0.00011 -0.00501 2.00000 
0.00065 -0.00437 2.00000 
0.00118 -0.00281 2.00000 
0.00059 -0.00188 2.00000 
0.00051 0.00055 2.00000 
-0.00155 0.00221 2.00000 
-0.00127 0.00607 2.00000 
-0.00635 0.00967 2.00000 
-0.00019 0.01424 2.00000 
-0.00150 0.01671 2.00000 
0.02022 0.01909 2.00000 
-0.00214 -0.01148 2.00000 
-0.00249 -0.01165 2.00000 
-0.00183 -0.01165 2.00000 
-0.00205 -0.01124 2.00000 
-0.00146 -0.01072 2.00000 
-0.00167 -0.01014 2.00000 
-0.00101 -0.00958 2.00000 
-0.00114 -0.00883 2.00000 
-0.00042 -0.00828 2.00000 
-0.00043 -0.00735 2.00000 
0.00029 -0.00686 2.00000 
0.00041 -0.00572 2.00000 
0.00094 -0.00530 2.00000 
0.00102 -0.00381 2.00000 
0.00018 -0.00342 2.00000 
-0.00076 -0.00102 2.00000 
-0.00302 -0.00041 2.00000 
-0.00536 0.00426 2.00000 
-0.01410 0.00510 2.00000 
-0.01705 0.01604 2.00000 
-0.03041 0.01123 2.00000 
-0.00298 -0.01129 1.97857 
-0.00147 -0.01145 2.00000 
-0.00104 -0.01156 2.00000 
-0.00126 -0.01120 2.00000 
-0.00072 -0.01074 2.00000 
-0.00087 -0.01022 2.00000 
-0.00027 -0.00974 2.00000 
-0.00036 -0.00907 2.00000 
0.00026 -0.00863 2.00000 
0.00025 -0.00781 2.00000 
0.00085 -0.00747 2.00000 
0.00090 -0.00649 2.00000 
0.00145 -0.00629 2.00000 
0.00109 -0.00508 2.00000 
0.00023 -0.00542 2.00000 
-0.00104 -0.00345 2.00000 
-0.00056 -0.00398 2.00000 
-0.00313 0.00108 2.00000 
-0.00004 0.00810 2.00000 
-0.03927 0.01042 2.00000 
-0.06133 -0.02436 2.00000 
-0.04929 -0.00546 2.00000 
-0.00094 -0.01140 2.00000 
-0.00044 -0.01143 2.00000 
-0.00057 -0.01115 2.00000 
-0.00007 -0.01076 2.00000 
-0.00017 -0.01031 2.00000 
0.00037 -0.00990 2.00000 
0.00031 -0.00932 2.00000 
0.00085 -0.00896 2.00000 
0.00084 -0.00828 2.00000 
0.00133 -0.00806 2.00000 
0.00135 -0.00728 2.00000 
0.00171 -0.00740 2.00000 
0.00107 -0.00663 2.00000 
0.00058 -0.00757 2.00000 
-0.00041 -0.00656 2.00000 
0.00211 -0.00883 2.00000 
0.00467 -0.00581 2.00000 
0.01000 -0.02128 2.00000 
-0.02308 -0.01104 1.99991 
-0.02625 -0.05029 2.00000 
0.00009 -0.01137 2.00000 
0.00001 -0.01112 2.00000 
0.00046 -0.01079 2.00000 
0.00042 -0.01039 2.00000 
0.00090 -0.01004 2.00000 
0.00088 -0.00954 2.00000 
0.00134 -0.00926 2.00000 
0.00134 -0.00870 2.00000 
0.00176 -0.00858 2.00000 
0.00174 -0.00802 2.00000 
0.00186 -0.00841 2.00000 
0.00133 -0.00808 2.00000 
0.00107 -0.00935 2.00000 
0.00048 -0.00952 2.00000 
0.00233 -0.01255 2.00000 
0.00560 -0.01468 2.00000 
0.00509 -0.02095 2.00000 
-0.00302 -0.02778 2.00000 
0.00045 -0.01112 2.00000 
0.00088 -0.01081 2.00000 
0.00091 -0.01045 2.00000 
0.00134 -0.01014 2.00000 
0.00134 -0.00973 2.00000 
0.00173 -0.00950 2.00000 
0.00175 -0.00907 2.00000 
0.00210 -0.00900 2.00000 
0.00213 -0.00863 2.00000 
0.00207 -0.00914 2.00000 
0.00165 -0.00922 2.00000 
0.00152 -0.01045 2.00000 
0.00101 -0.01136 2.00000 
0.00168 -0.01377 2.00000 
0.00320 -0.01663 2.00000 
0.00133 -0.02063 2.00000 
0.00130 -0.01049 2.00000 
0.00169 -0.01018 2.00000 
0.00171 -0.00986 2.00000 
0.00199 -0.00966 2.00000 
0.00210 -0.00937 2.00000 
0.00235 -0.00927 2.00000 
0.00237 -0.00909 2.00000 
0.00233 -0.00951 2.00000 
0.00201 -0.00999 2.00000 
0.00184 -0.01099 2.00000 
0.00155 -0.01193 2.00000 
0.00120 -0.01348 2.00000 
0.00124 -0.01625 2.00000 
0.00200 -0.00990 2.00000 
0.00221 -0.00965 2.00000 
0.00236 -0.00946 2.00000 
0.00250 -0.00943 2.00000 
0.00254 -0.00934 2.00000 
0.00255 -0.00959 2.00000 
0.00239 -0.00998 2.00000 
0.00220 -0.01073 2.00000 
0.00191 -0.01187 2.00000 
0.91878 0.39477 2.00000 
0.00000 0.00000 -1.50000 
CELLS 1023 3068
2 0 5
2 0 6
2 0 7
2 0 20
2 1 2
2 1 7
2 1 8
2 1 9
2 2 9
2 2 10
2 2 11
2 3 11
2 3 12
2 3 13
2 3 24
2 4 5
2 4 16
2 4 17
2 4 18
2 5 6
2 5 18
2 6 18
2 6 19
2 6 20
2 7 8
2 7 20
2 8 9
2 8 20
2 8 21
2 8 22
2 9 10
2 9 22
2 10 11
2 10 22
2 10 23
2 10 24
2 11 24
2 12 13
2 12 24
2 12 25
2 12 26
[...]
CELL_DATA 1023
SCALARS Strain double 
LOOKUP_TABLE default 
51.67697
37.55044
72.98267
30.63558
123.57629
98.17792
69.40305
43.79391
89.72440
29.04435
192.16453
312.99114
872.15533
400.29843
274.29007
43.55903
38.00666
27.53175
22.87928
22.45443
30.29696
42.77894
30.38584
48.81088
45.44118
67.20116
96.79766
96.43540
78.12365
51.80207
97.51958
64.58720
175.94812
153.87756
120.41836
239.20224
100.30569
1237.80162
1096.49418
1322.22662
2550.72695
1296.78542
1909.06597
1971.38400
1235.72672
481.03812
31.99654
25.56194
20.56304
15.92410
19.53640
24.10088
41.46715
35.50208
31.49917
21.21195
26.71977
34.66772
71.14559
49.56228
48.30874
31.05348
43.87824
64.12650
111.52437
81.48986
90.13227
44.57250
62.28752
114.41352
355.19958
152.58181
208.02013
127.74050
287.14799
448.27367
1917.06713
430.19401
757.44972
1228.74590
2692.30988
1938.29038
755.22224
1364.40687
991.46191
794.66164
201.70491
206.20871
152.43638
124.40973
150.42301
17.64541
19.06055
7.94909
12.04986
17.75775
29.40078
23.76113
23.94883
14.46456
17.62990
27.42467
39.74071
32.71098
34.67394
21.12641
24.74188
40.76157
58.89904
44.30481
52.82992
31.79236
38.19195
68.25367
90.30753
62.41945
88.91061
59.10362
79.45219
127.89582
148.06294
83.09957
161.46909
170.69657
383.52517
290.81593
495.76644
120.29373
154.26328
409.98217
404.39672
162.00258
271.20361
457.14949
303.72178
152.49896
216.25195
299.12436
97.42650
150.80480
82.10470
19.88760
17.15210
20.47127
8.94012
11.56207
21.87403
27.16412
22.93636
26.23774
15.50544
18.13936
29.79855
35.46159
29.42439
35.73669
23.38511
27.17712
42.79329
46.56064
36.86524
51.18342
37.17225
46.13181
65.81611
57.42996
44.07243
75.94229
68.93010
100.39520
105.71386
53.97718
43.70295
103.16695
142.39025
232.39438
137.92412
261.20038
101.68886
54.10095
201.36414
171.24519
90.15944
206.92676
229.46710
123.02353
51.77017
81.87121
176.84814
97.23188
37.12197
110.42447
112.43397
64.58059
99.22033
50.94868
57.02983
5.10838
15.88161
20.02916
13.09732
23.83166
12.32971
13.32947
23.99730
25.03988
21.94897
27.02765
17.43641
20.15243
30.64923
30.57832
26.16682
34.84365
25.90386
30.76199
41.52471
35.87154
30.36907
46.21796
40.38645
51.43084
57.91246
37.68472
32.91510
60.12985
67.61793
94.47024
77.46895
54.99578
39.14652
65.21679
109.78246
152.14516
71.60188
151.51586
89.47558
30.41218
122.77405
110.60445
35.54821
146.25245
138.53665
59.33938
49.35777
25.04721
96.98843
53.47752
93.53259
71.74498
32.19748
19.00373
51.19720
40.98430
26.46332
18.59693
8.71495
17.46231
9.88176
11.53858
20.25887
17.29321
21.70336
12.75250
15.20762
24.47889
22.93049
20.56008
26.53340
19.03751
22.09175
30.06911
26.39952
23.35174
32.63798
27.35074
32.83235
38.26698
29.10026
25.99591
40.08545
40.44470
51.21973
48.32430
32.60254
28.75998
46.35155
60.83753
80.42119
55.17689
56.82076
40.69037
42.94570
84.12623
105.48027
42.14051
105.56419
74.50973
23.59525
85.96696
80.91150
28.29853
108.33544
100.06954
40.66052
52.03836
34.37930
61.86447
62.22465
81.08178
47.40013
27.75275
14.44336
17.03472
43.12594
17.50927
35.74337
14.11667
16.89378
7.36739
8.25036
17.41999
8.82090
4.36685
15.98942
18.79004
11.81313
20.67024
14.55240
16.49107
23.59164
20.90050
18.80250
25.26994
19.96737
23.20218
28.49247
23.38840
21.11928
29.77884
27.49242
32.94837
34.16884
25.90388
23.51347
34.10484
38.24949
47.54564
39.41950
32.43869
27.70700
35.76500
52.44412
66.13933
39.74705
53.31481
40.16382
30.02501
65.23084
77.46892
28.27598
81.67702
63.16290
20.78905
64.68660
64.20575
25.66594
86.72530
80.21874
32.69654
49.26149
40.20296
42.16898
63.13141
74.84861
35.54471
38.94296
34.52777
31.16866
22.06023
58.20007
27.75002
46.43448
41.23719
27.53969
9.59598
17.04474
9.97459
8.63577
18.67632
16.62973
9.90743
20.61415
15.62703
17.44754
22.61225
19.06171
17.07510
23.67896
20.21577
23.38148
26.39330
21.37708
19.38193
26.74813
26.55960
31.54202
29.99837
24.54176
22.08217
28.87496
34.78907
42.30017
32.06362
32.15115
27.10583
28.08733
44.09145
53.66376
29.52386
48.50676
38.05822
22.48277
50.75900
58.76442
21.43527
67.78605
54.72257
19.83243
49.38648
51.93141
24.42065
76.16788
69.24202
31.06598
43.53093
43.74512
35.19465
67.83410
74.71164
48.64423
54.13959
40.62865
35.58268
59.47160
30.90248
58.64608
25.35521
64.02232
8.04869
12.02857
12.56165
10.50519
20.00394
15.06940
9.44353
19.92879
15.86241
17.76897
21.50228
17.45025
15.53704
21.87179
19.81582
22.76519
24.09434
19.94094
17.93603
23.81724
24.87471
29.16162
26.15963
23.64735
20.98272
24.56542
30.75413
36.57120
26.35450
30.96328
26.12839
22.74651
36.30248
42.95974
22.89720
43.59856
35.12793
18.11276
38.85370
44.50835
18.24156
58.53322
47.84841
20.81860
36.04233
40.01420
25.21732
71.55401
61.68561
49.26159
51.13198
55.59970
54.22204
81.02489
83.31896
69.35547
66.17383
67.99566
51.59286
60.70206
95.32644
57.91201
91.57586
72.65831
53.99529
59.20286
82.64194
11.47752
3.41278
11.85793
15.11944
7.57608
10.55801
19.00233
13.69878
8.31765
18.24044
15.42230
17.46092
19.98102
15.97809
14.03661
19.89776
18.90610
21.54766
21.75556
18.69658
16.57913
21.10247
22.72795
26.24869
22.80520
22.61701
19.82285
21.13591
26.56981
30.90039
22.11391
29.09020
24.69974
19.25812
29.25942
33.59299
18.84152
38.64052
31.80137
15.89383
27.98555
32.86240
16.58349
50.76065
41.75498
21.62882
34.02242
43.52174
36.95763
72.99245
58.79096
57.16641
55.33543
60.46312
71.11016
106.27240
93.92279
106.89375
73.02280
84.59487
89.24799
116.31932
143.47758
110.74612
82.44690
100.97844
83.15523
152.18025
114.25948
8.30947
14.14289
8.18292
9.62954
15.87888
12.13309
6.00084
16.12779
14.82596
16.73074
18.12932
14.52173
12.46008
17.88424
17.67015
19.93397
19.46481
17.40653
15.17630
18.62829
20.35216
23.11854
19.94031
21.27645
18.44237
18.44345
22.49610
25.55065
19.09316
26.90071
22.90259
17.25291
22.97761
25.74783
16.82200
33.10668
28.99750
15.96178
21.73978
23.71552
14.01386
46.24569
38.14303
25.59060
32.91639
46.23495
38.39413
73.05832
57.83407
58.90121
71.48970
74.56741
90.63824
134.37466
97.69834
162.45989
94.13352
72.92470
163.86464
164.85286
199.39881
222.41668
386.00726
56.91681
6.62899
12.86529
6.34239
9.77773
12.31738
10.31875
2.54576
14.92691
14.46502
15.81515
16.34115
13.01171
10.79973
15.94727
16.23578
18.10110
17.27283
15.96163
13.67258
16.35822
17.92258
19.99246
17.48467
19.59570
16.79725
16.27396
18.71147
20.67035
16.99590
24.55089
20.74797
16.27276
17.47571
18.75412
16.55743
32.14201
26.33274
18.33998
12.48847
20.95430
19.38581
47.59093
38.55097
30.73016
31.11213
51.97560
39.29268
76.49383
65.40959
58.93443
85.48038
123.64882
88.55610
152.36898
109.09809
178.82021
248.00437
54.89585
338.16204
436.03585
310.36569
587.38916
704.73617
875.38861
6.82419
5.98477
12.37222
12.18540
8.24426
7.23443
14.86861
13.51056
14.69319
14.85012
11.45988
9.26840
13.98926
14.65034
16.17626
15.16277
14.33847
12.07377
14.21491
15.56698
17.02618
15.30646
17.57561
14.90293
14.36893
15.33289
16.42352
15.41567
21.82718
18.19279
15.52505
13.24087
12.56444
17.27185
28.75369
22.80823
21.28987
4.26711
17.51382
24.40041
50.59542
36.85866
38.99947
23.56155
45.78775
47.95105
103.35625
71.59156
85.84605
28.82819
174.51197
76.66370
225.56397
232.65083
286.43456
513.55106
282.80036
457.24548
828.18656
176.97706
503.10916
1026.34849
7.80852
9.66573
7.48833
2.86370
11.36757
11.50261
13.21816
12.92205
9.89080
7.70410
11.86409
12.99019
14.25725
13.06327
12.57040
10.43051
12.11731
13.38188
14.32501
13.25776
15.24063
12.82034
12.49252
12.41958
12.84427
13.90453
18.58862
15.19892
14.30057
9.73950
10.62908
17.30619
24.21188
18.98533
21.85425
9.17607
17.36416
29.91453
45.88787
28.41205
42.65432
25.16154
13.41631
62.47099
112.55792
50.62714
109.73372
109.87140
152.27497
207.24977
784.93495
292.74926
619.86548
597.98807
822.73059
374.61676
536.75485
447.11553
809.10087
871.45106
9.04034
5.12211
9.65645
9.85613
11.58017
10.54133
8.37074
6.28762
9.60557
11.44018
12.45154
10.93579
10.72976
8.83499
10.01951
11.43663
11.95354
11.21127
12.67924
10.64718
10.48057
10.01309
9.92183
12.17198
14.44972
11.93528
12.45255
7.18807
6.59316
15.71241
19.17447
11.47144
19.32646
14.71578
20.24853
28.57757
27.28784
17.08769
35.86373
38.11196
66.88084
60.90030
78.14554
34.53558
73.49228
135.20080
326.11796
177.25519
691.42779
927.56048
157.58949
97.28569
289.99338
786.47912
645.96132
4.24330
7.73324
10.13932
7.81155
7.07986
5.54603
7.40750
10.26813
10.88302
8.82837
8.90046
7.37878
7.94028
9.74910
9.91717
9.07454
10.06242
8.47744
8.20363
8.07543
7.80865
10.12887
10.11174
8.82943
9.85451
6.50809
7.00561
13.39504
11.47305
6.03354
14.22101
15.89930
24.82569
22.74461
11.34131
10.88998
22.92683
39.25427
69.96747
37.24549
77.08241
34.53570
26.68602
82.51265
124.85704
60.98186
211.10784
93.28062
74.47684
166.37474
9.53500
6.16158
9.69191
9.65856
6.89314
7.12709
6.06940
6.05022
8.26589
8.09144
6.79201
7.55064
6.30687
5.08768
6.65247
6.10524
8.10702
6.39944
6.48606
6.45924
4.57191
9.20005
9.32300
7.65547
4.92288
8.18164
16.24031
23.72920
15.96974
19.80708
12.31251
11.35474
28.57731
49.07888
14.69880
63.76789
35.87827
10.33147
49.35225
87.26112
38.95740
86.66419
8.85671
5.36917
7.32250
5.82929
4.84275
5.20153
3.81210
3.41690
4.52615
4.91375
4.60448
2.72563
2.78752
3.20733
2.85008
7.55861
5.00751
10.62317
4.39933
3.52197
8.36856
19.15089
6.67295
14.23288
18.75496
7.84471
16.61109
30.61327
6.30265
54.50396
34.14986
5.64620
3.74149
1.80817
1.00666
2.31216
3.99886
7.49167
14.53833
22.39119
0.10000
