# vtk DataFile Version 3.0
Point representing Sub_cellular elem model
ASCII

DATASET UNSTRUCTURED_GRID
POINTS 364 float
-0.02266 -0.01125 2.00040 
-0.03128 -0.01030 2.00040 
-0.03737 -0.00891 2.00040 
-0.06105 0.00008 2.00040 
-0.01783 -0.01181 2.00040 
-0.02005 -0.01160 2.00040 
-0.02081 -0.01071 2.00040 
-0.02634 -0.01082 2.00040 
-0.02795 -0.00914 2.00040 
-0.03282 -0.00868 2.00040 
-0.03762 -0.00747 2.00040 
-0.04596 -0.00444 2.00040 
-0.09925 -0.01076 2.00040 
-0.04834 0.00024 2.00040 
0.02310 0.00819 2.00040 
-0.01426 -0.01224 2.00040 
-0.01589 -0.01203 2.00040 
-0.01653 -0.01123 2.00040 
-0.01863 -0.01093 2.00040 
-0.01950 -0.00985 2.00040 
-0.02310 -0.00973 2.00040 
-0.02423 -0.00779 2.00040 
-0.02984 -0.00731 2.00040 
-0.03207 -0.00508 2.00040 
-0.04982 -0.00796 2.00040 
-0.03613 -0.01167 2.00040 
-0.01660 -0.00701 1.91522 
0.07686 0.01838 2.00040 
0.04565 0.00847 2.00040 
0.03619 0.01305 2.00040 
-0.01203 -0.01261 2.00040 
-0.01295 -0.01244 2.00040 
-0.01325 -0.01186 2.00040 
-0.01473 -0.01155 2.00040 
-0.01501 -0.01066 2.00040 
-0.01700 -0.01022 2.00040 
-0.01720 -0.00895 2.00040 
-0.02014 -0.00838 2.00040 
-0.01988 -0.00644 2.00040 
-0.02435 -0.00553 2.00040 
-0.02193 -0.00237 2.00040 
-0.02900 0.00031 2.00040 
-0.01070 0.00615 2.00040 
0.01400 0.00420 2.00040 
0.03314 0.00759 2.00040 
0.04188 0.01829 2.00040 
0.03105 0.01680 2.00040 
-0.01105 -0.01243 2.00040 
-0.01205 -0.01216 2.00040 
-0.01205 -0.01153 2.00040 
-0.01339 -0.01110 2.00040 
-0.01330 -0.01015 2.00040 
-0.01502 -0.00955 2.00040 
-0.01462 -0.00821 2.00040 
-0.01684 -0.00736 2.00040 
-0.01550 -0.00542 2.00040 
-0.01807 -0.00405 2.00040 
-0.01385 -0.00123 2.00040 
-0.01427 0.00151 2.00040 
-0.00289 0.00431 2.00040 
0.01009 0.00585 2.00040 
0.01793 0.00956 2.00040 
0.02768 0.01321 2.00040 
0.02373 0.01466 2.00040 
0.02852 0.01346 2.00040 
0.02350 0.01274 2.00040 
-0.01018 -0.01216 2.00040 
-0.00998 -0.01238 2.00040 
-0.01093 -0.01195 2.00040 
-0.01072 -0.01127 2.00040 
-0.01190 -0.01073 2.00040 
-0.01152 -0.00974 2.00040 
-0.01291 -0.00900 2.00040 
-0.01208 -0.00766 2.00040 
-0.01359 -0.00661 2.00040 
-0.01171 -0.00479 2.00040 
-0.01281 -0.00320 2.00040 
-0.00867 -0.00083 2.00040 
-0.00726 0.00160 2.00040 
-0.00012 0.00434 2.00040 
0.00643 0.00830 2.00040 
0.01167 0.01010 2.00040 
0.01880 0.01205 2.00040 
0.01818 0.01324 2.00040 
0.02088 0.01292 2.00040 
0.02066 0.01194 2.00040 
-0.00838 -0.01193 2.00040 
-0.00935 -0.01207 2.00040 
-0.00875 -0.01225 2.00040 
-0.00970 -0.01178 2.00040 
-0.00934 -0.01106 2.00040 
-0.01035 -0.01043 2.00040 
-0.00976 -0.00944 2.00040 
-0.01083 -0.00860 2.00040 
-0.00975 -0.00730 2.00040 
-0.01069 -0.00613 2.00040 
-0.00868 -0.00447 2.00040 
-0.00891 -0.00282 2.00040 
-0.00537 -0.00082 2.00040 
-0.00365 0.00150 2.00040 
0.00123 0.00359 2.00040 
0.00561 0.00663 2.00040 
0.00942 0.00807 2.00040 
0.01391 0.01118 2.00040 
0.01556 0.01069 2.00040 
0.01856 0.01166 2.00040 
0.01854 0.01093 2.00040 
0.01937 0.01136 2.00040 
-0.00747 -0.01182 2.00040 
-0.00786 -0.01207 2.00040 
-0.00762 -0.01219 2.00040 
-0.00844 -0.01164 2.00040 
-0.00798 -0.01090 2.00040 
-0.00882 -0.01021 2.00040 
-0.00809 -0.00925 2.00040 
-0.00889 -0.00833 2.00040 
-0.00771 -0.00712 2.00040 
-0.00824 -0.00589 2.00040 
-0.00632 -0.00442 2.00040 
-0.00611 -0.00276 2.00040 
-0.00321 -0.00110 2.00040 
-0.00156 0.00105 2.00040 
0.00200 0.00266 2.00040 
0.00524 0.00523 2.00040 
0.00829 0.00632 2.00040 
0.01196 0.00871 2.00040 
0.01397 0.00885 2.00040 
0.01684 0.01024 2.00040 
0.01843 0.01027 2.00040 
0.01932 0.01102 2.00040 
-0.00656 -0.01173 2.00040 
-0.00702 -0.01199 2.00040 
-0.00655 -0.01209 2.00040 
-0.00722 -0.01153 2.00040 
-0.00668 -0.01079 2.00040 
-0.00736 -0.01006 2.00040 
-0.00656 -0.00915 2.00040 
-0.00714 -0.00820 2.00040 
-0.00596 -0.00708 2.00040 
-0.00623 -0.00584 2.00040 
-0.00450 -0.00455 2.00040 
-0.00409 -0.00295 2.00040 
-0.00174 -0.00158 2.00040 
-0.00027 0.00040 2.00040 
0.00242 0.00168 2.00040 
0.00501 0.00393 2.00040 
0.00747 0.00485 2.00040 
0.01068 0.00697 2.00040 
0.01281 0.00740 2.00040 
0.01587 0.00894 2.00040 
0.01690 0.01057 2.00040 
0.02029 0.01120 2.00040 
-0.00567 -0.01165 2.00040 
-0.00604 -0.01190 2.00040 
-0.00548 -0.01199 2.00040 
-0.00605 -0.01144 2.00040 
-0.00545 -0.01072 2.00040 
-0.00600 -0.00998 2.00040 
-0.00519 -0.00913 2.00040 
-0.00560 -0.00817 2.00040 
-0.00448 -0.00717 2.00040 
-0.00459 -0.00595 2.00040 
-0.00308 -0.00484 2.00040 
-0.00262 -0.00331 2.00040 
-0.00075 -0.00218 2.00040 
0.00053 -0.00036 2.00040 
0.00255 0.00066 2.00040 
0.00470 0.00270 2.00040 
0.00656 0.00353 2.00040 
0.00955 0.00555 2.00040 
0.01038 0.00815 2.00040 
0.01406 0.00969 2.00040 
0.01588 0.01189 2.00040 
0.01896 0.01189 2.00040 
0.02112 0.01325 2.00040 
-0.00503 -0.01156 2.00040 
-0.00441 -0.01156 2.00040 
-0.00501 -0.01178 2.00040 
-0.00444 -0.01190 2.00040 
-0.00493 -0.01136 2.00040 
-0.00432 -0.01068 2.00040 
-0.00475 -0.00996 2.00040 
-0.00395 -0.00917 2.00040 
-0.00425 -0.00824 2.00040 
-0.00323 -0.00735 2.00040 
-0.00325 -0.00618 2.00040 
-0.00198 -0.00523 2.00040 
-0.00155 -0.00380 2.00040 
-0.00010 -0.00286 2.00040 
0.00097 -0.00120 2.00040 
0.00247 -0.00042 2.00040 
0.00419 0.00151 2.00040 
0.00408 0.00371 2.00040 
0.00683 0.00608 2.00040 
0.00690 0.00894 2.00040 
0.01150 0.01087 2.00040 
0.01284 0.01352 2.00040 
0.01798 0.01396 2.00040 
0.01931 0.01604 2.00040 
-0.00361 -0.01151 2.00040 
-0.00402 -0.01173 2.00040 
-0.00349 -0.01181 2.00040 
-0.00389 -0.01130 2.00040 
-0.00328 -0.01067 2.00040 
-0.00362 -0.00998 2.00040 
-0.00286 -0.00927 2.00040 
-0.00308 -0.00838 2.00040 
-0.00216 -0.00761 2.00040 
-0.00215 -0.00650 2.00040 
-0.00110 -0.00571 2.00040 
-0.00075 -0.00436 2.00040 
0.00032 -0.00358 2.00040 
0.00110 -0.00206 2.00040 
0.00145 -0.00088 2.00040 
0.00233 0.00131 2.00040 
0.00129 0.00332 2.00040 
0.00330 0.00629 2.00040 
0.00166 0.00936 2.00040 
0.00689 0.01202 2.00040 
0.00684 0.01446 2.00040 
0.01264 0.01566 2.00040 
-0.00286 -0.01146 2.00040 
-0.00318 -0.01166 2.00040 
-0.00265 -0.01172 2.00040 
-0.00295 -0.01125 2.00040 
-0.00234 -0.01067 2.00040 
-0.00261 -0.01003 2.00040 
-0.00190 -0.00940 2.00040 
-0.00206 -0.00857 2.00040 
-0.00125 -0.00792 2.00040 
-0.00124 -0.00689 2.00040 
-0.00037 -0.00625 2.00040 
-0.00014 -0.00500 2.00040 
0.00061 -0.00437 2.00040 
0.00116 -0.00282 2.00040 
0.00060 -0.00193 2.00040 
0.00058 0.00048 2.00040 
-0.00128 0.00199 2.00040 
-0.00097 0.00574 2.00040 
-0.00539 0.00879 2.00040 
-0.00095 0.01276 2.00040 
-0.00193 0.01393 2.00040 
0.01164 0.01535 2.00040 
-0.00217 -0.01143 2.00040 
-0.00252 -0.01160 2.00040 
-0.00187 -0.01160 2.00040 
-0.00209 -0.01120 2.00040 
-0.00150 -0.01068 2.00040 
-0.00170 -0.01010 2.00040 
-0.00105 -0.00955 2.00040 
-0.00117 -0.00880 2.00040 
-0.00046 -0.00826 2.00040 
-0.00046 -0.00733 2.00040 
0.00025 -0.00684 2.00040 
0.00037 -0.00571 2.00040 
0.00090 -0.00530 2.00040 
0.00100 -0.00383 2.00040 
0.00016 -0.00351 2.00040 
-0.00068 -0.00118 2.00040 
-0.00261 -0.00079 2.00040 
-0.00443 0.00370 2.00040 
-0.01022 0.00541 2.00040 
-0.01345 0.01404 2.00040 
-0.02177 0.00855 2.00040 
-0.00545 -0.00651 2.00098 
-0.00151 -0.01140 2.00040 
-0.00109 -0.01151 2.00040 
-0.00130 -0.01115 2.00040 
-0.00076 -0.01070 2.00040 
-0.00091 -0.01019 2.00040 
-0.00032 -0.00972 2.00040 
-0.00040 -0.00905 2.00040 
0.00021 -0.00861 2.00040 
0.00020 -0.00780 2.00040 
0.00080 -0.00745 2.00040 
0.00085 -0.00648 2.00040 
0.00141 -0.00630 2.00040 
0.00106 -0.00512 2.00040 
0.00023 -0.00552 2.00040 
-0.00122 -0.00381 2.00040 
-0.00019 -0.00430 2.00040 
-0.00145 0.00028 2.00040 
-0.00008 -0.00175 2.00040 
-0.02348 0.01002 2.00040 
-0.07484 -0.01518 2.00040 
-0.03824 -0.00351 2.00040 
-0.00098 -0.01135 2.00040 
-0.00049 -0.01139 2.00040 
-0.00062 -0.01111 2.00040 
-0.00012 -0.01073 2.00040 
-0.00022 -0.01027 2.00040 
0.00031 -0.00987 2.00040 
0.00026 -0.00929 2.00040 
0.00079 -0.00894 2.00040 
0.00078 -0.00826 2.00040 
0.00128 -0.00805 2.00040 
0.00130 -0.00728 2.00040 
0.00168 -0.00741 2.00040 
0.00106 -0.00666 2.00040 
0.00065 -0.00763 2.00040 
-0.00030 -0.00672 2.00040 
0.00180 -0.00891 2.00040 
0.00410 -0.00712 2.00040 
0.01334 -0.02686 2.00040 
0.01046 0.02502 1.93825 
-0.04894 -0.06682 2.00040 
0.00004 -0.01133 2.00040 
-0.00005 -0.01108 2.00040 
0.00040 -0.01076 2.00040 
0.00037 -0.01036 2.00040 
0.00084 -0.01001 2.00040 
0.00082 -0.00952 2.00040 
0.00128 -0.00924 2.00040 
0.00128 -0.00869 2.00040 
0.00170 -0.00857 2.00040 
0.00169 -0.00803 2.00040 
0.00182 -0.00842 2.00040 
0.00132 -0.00811 2.00040 
0.00111 -0.00938 2.00040 
0.00058 -0.00951 2.00040 
0.00209 -0.01235 2.00040 
0.00458 -0.01482 2.00040 
0.00314 -0.02053 2.00040 
-0.00640 -0.02748 2.00040 
0.00039 -0.01108 2.00040 
0.00082 -0.01078 2.00040 
0.00085 -0.01042 2.00040 
0.00127 -0.01011 2.00040 
0.00128 -0.00971 2.00040 
0.00167 -0.00948 2.00040 
0.00169 -0.00906 2.00040 
0.00204 -0.00900 2.00040 
0.00208 -0.00864 2.00040 
0.00203 -0.00915 2.00040 
0.00163 -0.00925 2.00040 
0.00152 -0.01049 2.00040 
0.00099 -0.01135 2.00040 
0.00159 -0.01366 2.00040 
0.00238 -0.01615 2.00040 
0.00021 -0.01966 2.00040 
0.00124 -0.01046 2.00040 
0.00162 -0.01015 2.00040 
0.00164 -0.00984 2.00040 
0.00192 -0.00965 2.00040 
0.00203 -0.00936 2.00040 
0.00229 -0.00928 2.00040 
0.00231 -0.00910 2.00040 
0.00229 -0.00953 2.00040 
0.00198 -0.01002 2.00040 
0.00183 -0.01101 2.00040 
0.00155 -0.01194 2.00040 
0.00124 -0.01342 2.00040 
0.00109 -0.01592 2.00040 
0.00193 -0.00989 2.00040 
0.00213 -0.00963 2.00040 
0.00229 -0.00946 2.00040 
0.00243 -0.00944 2.00040 
0.00248 -0.00935 2.00040 
0.00250 -0.00960 2.00040 
0.00236 -0.01000 2.00040 
0.00218 -0.01075 2.00040 
0.00192 -0.01187 2.00040 
0.91878 0.39477 2.00040 
0.00000 0.00000 -1.50000 
CELLS 1023 3068
2 0 5
2 0 6
2 0 7
2 0 20
2 1 2
2 1 7
2 1 8
2 1 9
2 2 9
2 2 10
2 2 11
2 3 11
2 3 12
2 3 13
2 3 24
2 4 5
2 4 16
2 4 17
2 4 18
2 5 6
2 5 18
2 6 18
2 6 19
2 6 20
2 7 8
2 7 20
2 8 9
2 8 20
2 8 21
2 8 22
2 9 10
2 9 22
2 10 11
2 10 22
2 10 23
2 10 24
2 11 24
2 12 13
2 12 24
2 12 25
2 12 26
[...]
CELL_DATA 1023
SCALARS Strain double 
LOOKUP_TABLE default 
51.71521
37.56173
73.07194
30.66020
123.98393
98.36642
69.50674
43.82010
90.06204
28.17488
192.55975
314.14155
793.20522
253.29124
275.18046
43.56211
37.98516
27.50355
22.87484
22.46565
30.28261
42.78492
30.35201
48.86875
45.51043
67.23008
97.00526
96.54628
78.14760
51.74520
97.88965
64.56247
176.39726
154.57796
119.85270
243.22042
103.46792
1040.80936
989.19255
1261.49595
2373.93159
1436.47092
1822.76759
1902.95162
1093.34988
450.14946
31.95661
25.51198
20.51610
15.89529
19.51661
24.06186
41.45044
35.46398
31.44623
21.18270
26.72196
34.62455
71.17112
49.55357
48.24980
31.04511
43.89281
64.08308
111.70730
81.52439
90.11434
44.32825
62.03028
114.53869
358.64748
153.69118
209.02996
123.08144
282.65573
447.10441
1749.29452
277.83822
620.05280
1050.59671
2578.50517
1822.98944
653.83224
1287.83141
899.49868
698.55329
209.37340
209.48967
153.73111
126.13730
152.50950
17.59875
18.98977
7.92132
12.01896
17.70434
29.34736
23.69936
23.87924
14.41781
17.58723
27.36288
39.70512
32.65484
34.59885
21.06139
24.69299
40.69498
58.89569
44.27235
52.75089
31.71300
38.13285
68.18394
90.32462
62.39120
88.82949
59.00998
78.66368
127.99951
150.13445
83.14251
162.04368
170.65112
383.05369
294.55871
494.53943
116.09023
159.65004
414.88572
387.93100
83.85053
275.25181
461.42452
305.71783
155.72683
217.64202
300.53622
97.35126
151.62762
82.83217
19.81942
17.08398
20.38599
8.90041
11.51666
21.79570
27.09423
22.85797
26.14658
15.43903
18.07116
29.71521
35.40305
29.34741
35.64081
23.29344
27.08497
42.70623
46.52374
36.80230
51.08559
37.05697
46.03551
65.72311
57.30244
44.00357
75.81878
68.84471
100.41053
105.59625
54.37852
43.58181
102.96374
142.43742
233.44024
139.04278
260.27361
102.01949
54.29284
201.68849
172.61712
87.00794
207.21216
230.42276
124.64559
51.58274
83.25767
178.27098
97.88102
37.58903
110.55198
113.51586
65.64378
100.48461
51.46988
58.06264
5.08443
15.80626
19.94619
13.03740
23.71748
12.26920
13.26694
23.89779
24.95132
21.85343
26.91727
17.35340
20.06472
30.54551
30.49312
26.06767
34.72772
25.79640
30.64852
41.41746
35.79539
30.27198
46.10016
40.25581
51.30275
57.80171
37.56345
32.80951
59.99576
67.47926
94.37547
77.28052
55.16620
39.05061
64.93285
109.61689
152.03060
71.23621
152.10631
89.69026
29.85136
122.39904
109.86535
36.14948
146.65214
138.74721
59.76744
48.68928
25.95795
98.22107
53.45464
93.74843
72.23713
31.64666
19.22528
51.86805
41.30730
27.25901
18.50065
8.67082
17.36351
9.82570
11.47938
20.15705
17.20003
21.58822
12.68280
15.12972
24.36292
22.82385
20.45035
26.40711
18.94077
21.98980
29.94681
26.28780
23.23261
32.50335
27.23262
32.70830
38.13931
28.98524
25.86966
39.94557
40.30742
51.07583
48.19404
32.46963
28.62645
46.20006
60.67836
80.25743
55.00042
56.78442
40.56590
42.69949
83.91576
105.21683
41.74055
105.66892
74.46826
23.10645
85.61544
80.40418
28.13491
108.36991
100.06864
40.64406
51.43466
33.38049
61.97998
62.12227
81.07519
47.57247
26.23893
13.48383
16.23101
43.48504
17.67573
35.55194
12.41944
14.81566
5.73784
8.20166
17.31244
8.76818
4.34410
15.89477
18.68095
11.74021
20.54719
14.46687
16.40000
23.46467
20.77943
18.68398
25.13070
19.85900
23.08897
28.35412
23.25597
20.98579
29.62788
27.36605
32.81740
34.02142
25.76568
23.37071
33.94207
38.10754
47.39560
39.26304
32.30312
27.56899
35.57883
52.27469
65.95329
39.55374
53.20333
40.03990
29.75876
65.00271
77.19779
27.92726
81.60181
63.04894
20.41148
64.35124
63.76944
25.39295
86.66822
80.10512
32.58440
48.64592
39.28408
42.20890
62.90905
74.70866
36.04699
37.08356
30.64289
31.55706
22.39113
56.66290
30.03427
40.65446
32.98797
18.68326
9.53452
16.93135
9.91047
8.58542
18.55674
16.51862
9.83785
20.47795
15.52803
17.34415
22.47449
18.93156
16.95206
23.52952
20.09783
23.25920
26.24197
21.23332
19.24133
26.58426
26.42687
31.40545
29.83338
24.39866
21.93570
28.69130
34.64218
42.14393
31.87734
32.02648
26.97541
27.86129
43.91103
53.46254
29.28469
48.39194
37.94904
22.18156
50.52681
58.49394
21.09922
67.65424
54.60946
19.57003
49.11422
51.51862
24.19136
75.95693
69.03482
30.98003
42.78680
42.47375
35.40225
67.43545
74.12243
49.97427
51.24116
37.63111
38.21060
58.45044
32.36376
47.78601
28.95384
43.19543
7.99303
11.94337
12.47432
10.43851
19.86537
14.95624
9.37098
19.78475
15.75403
17.65574
21.35585
17.31662
15.41332
21.71605
19.69080
22.63605
23.93382
19.79522
17.79538
23.64501
24.73773
29.02072
25.98108
23.51013
20.84183
24.36699
30.60340
36.40785
26.14206
30.85119
26.00939
22.49419
36.11542
42.75148
22.61895
43.50374
35.03320
17.83108
38.66066
44.30108
17.97227
58.40200
47.77553
20.71132
35.99450
39.72737
25.05304
70.97485
61.37234
48.67505
50.17827
53.69222
54.27812
78.88854
81.13128
70.26861
57.86308
55.98122
55.45090
60.50908
88.97673
68.08573
57.92166
50.13714
44.80273
63.37853
65.55091
11.39063
3.39255
11.76965
15.00098
7.51820
10.48583
18.86095
13.58641
8.24750
18.09783
15.30874
17.34090
19.83105
15.84635
13.91672
19.74037
18.77651
21.41406
21.59038
18.55637
16.44421
20.92743
22.58912
26.10567
22.61928
22.49210
19.69402
20.93359
26.41900
30.73387
21.88873
28.98935
24.59578
19.01135
29.07939
33.40239
18.56727
38.57326
31.71815
15.70984
27.90051
32.82416
16.45692
50.70734
41.74155
21.44412
33.73240
43.06663
36.40575
71.60924
58.38755
55.39413
53.06887
56.31941
69.72371
98.68236
88.38984
104.18445
60.46856
58.33948
93.96881
102.18193
121.71858
120.33744
41.86758
48.55376
111.10169
132.73015
153.13835
8.24202
14.02683
8.11701
9.55697
15.75176
12.02701
5.94578
15.99245
14.70855
16.60642
17.98107
14.39651
12.34838
17.72935
17.53815
19.79822
19.29983
17.27705
15.05112
18.45647
20.21379
22.97640
19.75516
21.16904
18.32957
18.25115
22.35005
25.38938
18.87713
26.81216
22.81808
17.04917
22.81772
25.59880
16.60799
33.07558
28.91298
15.91074
21.68357
23.58430
14.11971
46.25470
38.06257
25.86923
31.37305
44.31353
37.75965
70.81789
57.47978
56.95122
65.25616
68.61146
85.17191
116.28246
88.52101
140.42806
84.73040
47.77463
156.44340
117.33632
158.44386
174.75334
292.34732
19.89790
6.57155
12.75424
6.28809
9.69760
12.21269
10.22405
2.52074
14.79300
14.34186
15.68796
16.19685
12.89632
10.69910
15.79821
16.10332
17.96521
17.11271
15.84547
13.55906
16.19531
17.78639
19.85386
17.30886
19.50836
16.70078
16.10400
18.57315
20.52077
16.81161
24.47457
20.68287
16.13621
17.33419
18.63460
16.43610
32.02280
26.21768
18.39148
12.26829
20.02341
19.61202
47.18571
37.95882
31.95633
28.69525
46.87160
40.78135
74.31233
63.49371
60.48899
70.65178
106.33885
79.30235
118.21940
102.52543
116.87682
191.47887
29.54878
250.35084
271.78809
229.42824
410.21792
414.12236
554.12600
6.76055
5.93299
12.25895
12.07684
8.16348
7.16552
14.72867
13.38645
14.56530
14.71031
11.35588
9.17922
13.85004
14.51965
16.04186
15.01184
14.23528
11.97188
14.06541
15.43381
16.89238
15.14677
17.50510
14.81868
14.22754
15.20288
16.28645
15.27659
21.75393
18.13814
15.45863
13.11739
12.44291
17.24122
28.41380
22.62995
21.40115
3.92255
16.93696
24.71510
48.62343
35.77192
39.21486
27.19852
38.35603
52.58085
95.80090
65.53383
84.24373
30.54536
119.83879
89.65114
183.23869
202.24581
247.38594
279.61464
198.45578
215.10264
443.31732
44.02327
407.29385
657.76816
7.73355
9.57356
7.41420
2.83701
11.25487
11.39009
13.09396
12.79384
9.79846
7.62756
11.73954
12.86323
14.12552
12.92550
12.47727
10.33871
11.98406
13.25181
14.19598
13.11755
15.17728
12.74092
12.37847
12.29856
12.72296
13.81035
18.50233
15.13957
14.28850
9.67594
10.61180
17.34768
23.60040
18.75597
21.93327
9.09575
17.56187
29.91712
43.89927
27.16729
41.92439
25.17849
21.68573
60.11895
93.98524
47.53626
99.45606
101.73527
48.05232
184.00496
522.81870
135.03174
568.52547
1368.74670
1143.25087
399.53999
1446.69949
767.24606
2257.77645
1154.30982
8.94774
5.06891
9.55491
9.75218
11.46249
10.43131
8.28920
6.22255
9.49969
11.31733
12.32291
10.81436
10.64252
8.75087
9.90369
11.30931
11.82899
11.09046
12.60990
10.56503
10.38689
9.90407
9.82620
12.11069
14.34428
11.85353
12.46744
7.20714
6.91199
15.79242
18.45193
11.27196
19.40192
14.71364
19.94863
28.49885
25.26716
15.58016
35.25942
36.75199
59.63675
57.59527
57.17711
26.25821
68.21629
129.74545
435.06383
153.41348
1619.30549
1478.95492
296.84872
239.25468
394.00233
2515.01298
1157.89529
4.19793
7.64720
10.02806
7.72652
7.00611
5.48489
7.32125
10.14715
10.75687
8.72476
8.81561
7.29965
7.84148
9.62413
9.79699
8.97098
9.97619
8.38857
8.12182
7.97985
7.75686
10.08092
9.96099
8.71639
9.86459
6.64626
7.33957
13.45753
10.69626
5.71321
14.23607
16.01456
24.71567
22.62279
9.84816
9.79049
22.52828
38.37223
63.26919
36.55816
69.15701
28.73543
26.89028
75.10125
116.74723
50.25907
234.90326
87.95111
59.99421
203.76078
9.42296
6.09033
9.56816
9.53321
6.80599
7.04377
5.99309
5.96564
8.14354
7.97548
6.70409
7.44449
6.21465
5.01868
6.56194
6.09650
8.04976
6.26184
6.34290
6.46411
4.76815
9.39470
9.35538
7.20665
4.68276
8.14503
16.35873
23.76947
15.84983
19.13959
12.16211
11.23694
28.15139
46.67167
15.26492
51.33209
33.26308
7.40059
45.25940
81.58477
25.27825
75.93034
8.72874
5.29109
7.19576
5.72739
4.76617
5.08188
3.74286
3.34829
4.51317
4.80596
4.55619
2.60562
2.67234
3.26885
3.04275
7.70092
4.98916
10.51258
4.29812
3.38637
8.44759
19.02999
6.52421
14.18988
18.49316
7.75008
16.20435
29.07919
6.56527
49.07797
32.80662
5.51747
3.61354
1.86665
1.06030
2.51897
4.06490
7.47436
14.43428
21.90694
0.10000
