# vtk DataFile Version 3.0
Point representing Sub_cellular elem model
ASCII

DATASET UNSTRUCTURED_GRID
POINTS 364 float
-0.81149 -0.18471 1.99145 
-0.85666 -0.03430 2.00186 
-0.85698 0.07699 2.00904 
-0.81308 0.22771 2.01873 
-0.74145 -0.37478 1.97402 
-0.78781 -0.28605 1.98231 
-0.74953 -0.22300 1.97750 
-0.83037 -0.11074 1.98965 
-0.76974 -0.05858 2.00018 
-0.80626 0.02236 1.99247 
-0.77008 0.10176 2.01046 
-0.83112 0.15441 2.00745 
-0.75137 0.26803 2.00903 
-0.78968 0.32977 2.02262 
-0.74663 0.41912 2.02467 
-0.66077 -0.51869 1.96412 
-0.70728 -0.45149 1.97397 
-0.67516 -0.37876 1.97091 
-0.71662 -0.30298 1.98877 
-0.67786 -0.21748 1.98521 
-0.74412 -0.13541 1.99714 
-0.68394 -0.06374 1.98913 
-0.72304 0.02135 2.01046 
-0.68427 0.10877 2.00100 
-0.74482 0.17844 2.01788 
-0.67830 0.26180 2.01759 
-0.71901 0.34642 2.03155 
-0.67784 0.42356 2.02468 
-0.71530 0.49510 2.03514 
-0.66727 0.57416 2.03455 
-0.57776 -0.66494 1.95901 
-0.60702 -0.59942 1.96014 
-0.58726 -0.53558 1.97364 
-0.62987 -0.45563 1.96838 
-0.58824 -0.38050 1.98498 
-0.62774 -0.29941 1.97641 
-0.59714 -0.21618 1.99553 
-0.64187 -0.13726 1.99019 
-0.59446 -0.05939 2.00605 
-0.63938 0.02198 2.00084 
-0.59491 0.10190 2.01759 
-0.64266 0.18082 2.01139 
-0.59856 0.25883 2.02756 
-0.62946 0.34353 2.01788 
-0.59083 0.42279 2.03872 
-0.63630 0.49896 2.02904 
-0.59195 0.57565 2.04761 
-0.49962 -0.67690 1.95390 
-0.54232 -0.61047 1.95516 
-0.49825 -0.53594 1.96396 
-0.54448 -0.45760 1.96238 
-0.49880 -0.37798 1.97381 
-0.55073 -0.29634 1.97468 
-0.50452 -0.21752 1.98555 
-0.55080 -0.13870 1.98393 
-0.50383 -0.05843 1.99659 
-0.55011 0.02263 1.99465 
-0.50431 0.10259 2.00810 
-0.55194 0.18392 2.00646 
-0.50589 0.26255 2.01729 
-0.55255 0.34169 2.01779 
-0.50020 0.42542 2.02744 
-0.54627 0.50373 2.02779 
-0.50301 0.59581 2.03748 
-0.58162 0.64916 2.04082 
-0.51906 0.68445 2.04493 
-0.46226 -0.74112 1.95361 
-0.41925 -0.69429 1.94887 
-0.45390 -0.61660 1.96846 
-0.41021 -0.53823 1.95592 
-0.45246 -0.45916 1.97980 
-0.41204 -0.37683 1.96735 
-0.45752 -0.29789 1.98989 
-0.41347 -0.21776 1.97818 
-0.45766 -0.13884 2.00078 
-0.41336 -0.05779 1.98939 
-0.45749 0.02128 2.01252 
-0.41424 0.10329 2.00060 
-0.45902 0.18206 2.02316 
-0.41604 0.26427 2.01158 
-0.45992 0.34289 2.03315 
-0.41551 0.42597 2.02290 
-0.45436 0.50820 2.04560 
-0.41271 0.59402 2.03468 
-0.45040 0.67077 2.05406 
-0.42938 0.73935 2.04880 
-0.33552 -0.79320 1.94847 
-0.39818 -0.74239 1.94921 
-0.32817 -0.70530 1.95918 
-0.36718 -0.62050 1.95917 
-0.31719 -0.54205 1.97209 
-0.36398 -0.45933 1.97028 
-0.31839 -0.38023 1.98317 
-0.36638 -0.29870 1.98181 
-0.31972 -0.22020 1.99491 
-0.36702 -0.13907 1.99307 
-0.32008 -0.05989 2.00599 
-0.36746 0.02158 2.00424 
-0.32113 0.10077 2.01815 
-0.36876 0.18257 2.01542 
-0.32281 0.26174 2.02873 
-0.36967 0.34368 2.02493 
-0.32286 0.42344 2.03927 
-0.36686 0.50820 2.03566 
-0.31963 0.58985 2.05066 
-0.36235 0.68241 2.04604 
-0.29934 0.75645 2.05992 
-0.36631 0.77173 2.05152 
-0.22878 -0.83761 1.94547 
-0.26378 -0.76924 1.93857 
-0.22333 -0.69435 1.95806 
-0.27796 -0.62158 1.94976 
-0.23075 -0.54222 1.96657 
-0.27508 -0.45987 1.96013 
-0.22941 -0.38109 1.97737 
-0.27525 -0.29910 1.97135 
-0.23005 -0.22056 1.98968 
-0.27594 -0.13902 1.98349 
-0.23085 -0.05991 2.00098 
-0.27677 0.02177 1.99513 
-0.23187 0.10084 2.01290 
-0.27820 0.18260 2.00723 
-0.23328 0.26147 2.02304 
-0.27968 0.34360 2.01679 
-0.23451 0.42217 2.03297 
-0.28073 0.50646 2.02763 
-0.23406 0.58506 2.04359 
-0.27575 0.67407 2.03953 
-0.21690 0.76440 2.05524 
-0.27237 0.82248 2.05479 
-0.13412 -0.84223 1.93994 
-0.17600 -0.77678 1.95519 
-0.12925 -0.70220 1.94362 
-0.18274 -0.62472 1.96428 
-0.13934 -0.54331 1.95448 
-0.18197 -0.46350 1.97575 
-0.13799 -0.38206 1.96481 
-0.18186 -0.30239 1.98731 
-0.13850 -0.22085 1.97680 
-0.18264 -0.14164 1.99977 
-0.13931 -0.06001 1.98880 
-0.18351 0.01904 2.01161 
-0.14031 0.10063 2.00035 
-0.18483 0.17932 2.02349 
-0.14140 0.26045 2.01232 
-0.18630 0.33891 2.03425 
-0.14287 0.41945 2.02277 
-0.18747 0.49820 2.04481 
-0.14361 0.57732 2.03219 
-0.18309 0.65983 2.05562 
-0.13292 0.73515 2.04027 
-0.18269 0.85103 2.05677 
-0.06162 -0.83619 1.94768 
-0.08847 -0.77465 1.94700 
-0.03886 -0.70509 1.95662 
-0.09124 -0.62265 1.96277 
-0.04615 -0.54441 1.96904 
-0.09341 -0.46383 1.97327 
-0.04512 -0.38395 1.98003 
-0.09356 -0.30265 1.98449 
-0.04563 -0.22253 1.99173 
-0.09425 -0.14148 1.99654 
-0.04640 -0.06151 2.00438 
-0.09502 0.01935 2.00834 
-0.04717 0.09916 2.01601 
-0.09588 0.17961 2.02039 
-0.04799 0.25916 2.02810 
-0.09682 0.33915 2.03154 
-0.04902 0.41862 2.03870 
-0.09750 0.49722 2.04167 
-0.04992 0.57776 2.04827 
-0.09487 0.65308 2.05279 
-0.04345 0.74407 2.05784 
-0.10670 0.81815 2.06292 
-0.06844 0.87789 2.06069 
0.00065 -0.84065 1.93851 
0.06311 -0.83562 1.94560 
0.00047 -0.78770 1.94148 
0.03928 -0.70478 1.95625 
-0.00019 -0.62302 1.94814 
0.04529 -0.54403 1.96846 
-0.00078 -0.46350 1.95927 
0.04298 -0.38359 1.97989 
-0.00144 -0.30207 1.97045 
0.04222 -0.22219 1.99151 
-0.00205 -0.14063 1.98225 
0.04172 -0.06113 2.00410 
-0.00270 0.02017 1.99466 
0.04121 0.09953 2.01570 
-0.00332 0.18057 2.00632 
0.04082 0.25957 2.02748 
-0.00394 0.34025 2.01802 
0.04057 0.41903 2.03840 
-0.00462 0.49934 2.02747 
0.04027 0.57821 2.04731 
-0.00525 0.65942 2.03657 
0.03243 0.74441 2.05733 
-0.00590 0.82845 2.04909 
0.05633 0.87842 2.06019 
0.13552 -0.84091 1.93661 
0.08935 -0.77385 1.94524 
0.12943 -0.70099 1.94188 
0.09101 -0.62189 1.96213 
0.13836 -0.54210 1.95341 
0.09191 -0.46309 1.97268 
0.13576 -0.38093 1.96450 
0.09078 -0.30186 1.98406 
0.13494 -0.21971 1.97583 
0.09020 -0.14074 1.99620 
0.13457 -0.05883 1.98810 
0.08971 0.02008 2.00816 
0.13430 0.10167 2.00039 
0.08931 0.18037 2.01998 
0.13418 0.26160 2.01159 
0.08897 0.33986 2.03148 
0.13441 0.42054 2.02239 
0.08839 0.49805 2.04064 
0.13393 0.57847 2.03070 
0.08458 0.65385 2.05173 
0.12190 0.73619 2.03945 
0.09508 0.81900 2.06180 
0.23020 -0.83550 1.94130 
0.17702 -0.77520 1.95179 
0.22361 -0.69241 1.95501 
0.18254 -0.62316 1.96199 
0.22986 -0.54024 1.96419 
0.18048 -0.46205 1.97491 
0.22726 -0.37920 1.97641 
0.17909 -0.30090 1.98660 
0.22663 -0.21856 1.98761 
0.17861 -0.14015 1.99829 
0.22613 -0.05809 2.00025 
0.17822 0.02049 2.01114 
0.22591 0.10275 2.01179 
0.17827 0.18079 2.02287 
0.22603 0.26332 2.02284 
0.17842 0.34039 2.03393 
0.22601 0.42399 2.03315 
0.17829 0.49972 2.04461 
0.22426 0.58693 2.04278 
0.17271 0.66130 2.05440 
0.20569 0.76618 2.05402 
0.17081 0.85247 2.05603 
0.33655 -0.79022 1.94424 
0.26458 -0.76676 1.93434 
0.32858 -0.70244 1.95502 
0.27758 -0.61910 1.94651 
0.31634 -0.53940 1.96931 
0.27338 -0.45753 1.95816 
0.31634 -0.37760 1.98102 
0.27232 -0.29688 1.96983 
0.31630 -0.21757 1.99268 
0.27189 -0.13664 1.98182 
0.31538 -0.05737 2.00541 
0.27139 0.02395 1.99427 
0.31515 0.10337 2.01671 
0.27156 0.18490 2.00605 
0.31557 0.26419 2.02868 
0.27180 0.34576 2.01728 
0.31438 0.42591 2.03975 
0.27157 0.50851 2.02858 
0.30977 0.59240 2.05028 
0.26532 0.67625 2.03835 
0.28814 0.75874 2.05931 
0.26071 0.82461 2.05434 
0.39882 -0.73887 1.94433 
0.41946 -0.69058 1.94392 
0.36684 -0.61733 1.95512 
0.40906 -0.53468 1.95130 
0.36238 -0.45623 1.96704 
0.40966 -0.37324 1.96293 
0.36352 -0.29559 1.97892 
0.40995 -0.21425 1.97572 
0.36291 -0.13609 1.99172 
0.40855 -0.05444 1.98776 
0.36212 0.02452 2.00343 
0.40818 0.10667 1.99911 
0.36215 0.18553 2.01469 
0.40878 0.26762 2.01120 
0.36180 0.34659 2.02509 
0.40699 0.42921 2.02280 
0.35769 0.51107 2.03578 
0.40289 0.59725 2.03467 
0.35179 0.68526 2.04557 
0.41842 0.74268 2.04862 
0.35506 0.77461 2.05105 
0.46292 -0.73705 1.94740 
0.49972 -0.67250 1.94734 
0.45369 -0.61264 1.96296 
0.49725 -0.53155 1.95808 
0.45100 -0.45525 1.97469 
0.49653 -0.37365 1.96855 
0.45474 -0.29412 1.98602 
0.50100 -0.21330 1.98184 
0.45369 -0.13519 1.99897 
0.49905 -0.05430 1.99415 
0.45223 0.02500 2.01063 
0.49834 0.10669 2.00592 
0.45243 0.18562 2.02240 
0.49866 0.26650 2.01736 
0.45204 0.34642 2.03367 
0.49166 0.42931 2.02751 
0.44518 0.51174 2.04535 
0.49315 0.59971 2.03773 
0.43991 0.67427 2.05451 
0.50848 0.68846 2.04508 
0.57780 -0.65984 1.95132 
0.54179 -0.60563 1.94788 
0.58639 -0.53051 1.96655 
0.54277 -0.45286 1.95670 
0.58618 -0.37554 1.97919 
0.54779 -0.29157 1.96952 
0.59376 -0.21117 1.99043 
0.54656 -0.13403 1.98023 
0.58987 -0.05447 2.00202 
0.54462 0.02720 1.99180 
0.58898 0.10665 2.01503 
0.54521 0.18850 2.00495 
0.59140 0.26353 2.02634 
0.54466 0.34604 2.01798 
0.58231 0.42736 2.03895 
0.53718 0.50801 2.02802 
0.58217 0.58012 2.04910 
0.57133 0.65361 2.04233 
0.60649 -0.59407 1.95194 
0.65956 -0.51286 1.95565 
0.62820 -0.45012 1.96093 
0.67284 -0.37287 1.96359 
0.62477 -0.29404 1.97037 
0.67430 -0.21166 1.97868 
0.63768 -0.13184 1.98503 
0.67911 -0.05793 1.98381 
0.63395 0.02729 1.99693 
0.67813 0.11448 1.99779 
0.63602 0.18598 2.00938 
0.67108 0.26720 2.01657 
0.62157 0.34851 2.01783 
0.66937 0.42881 2.02572 
0.62718 0.50389 2.02998 
0.65759 0.57930 2.03631 
0.70565 -0.44533 1.96542 
0.73915 -0.36836 1.96594 
0.71381 -0.29685 1.98145 
0.74595 -0.21655 1.97028 
0.74002 -0.12917 1.99074 
0.76495 -0.05213 1.99427 
0.71772 0.02734 2.00514 
0.76406 0.10800 2.00662 
0.73826 0.18433 2.01577 
0.74406 0.27408 2.00823 
0.71108 0.35195 2.03143 
0.73816 0.42494 2.02578 
0.70621 0.50062 2.03625 
0.78482 -0.27929 1.97456 
0.80770 -0.17787 1.98427 
0.82601 -0.10376 1.98353 
0.85169 -0.02720 1.99596 
0.80083 0.02919 1.98697 
0.85115 0.08403 2.00415 
0.82466 0.16123 2.00394 
0.80612 0.23415 2.01692 
0.78193 0.33593 2.02269 
0.91878 0.39477 2.00000 
0.00000 0.00000 -1.50000 
CELLS 1023 3068
2 0 5
2 0 6
2 0 7
2 0 20
2 1 2
2 1 7
2 1 8
2 1 9
2 2 9
2 2 10
2 2 11
2 3 11
2 3 12
2 3 13
2 3 24
2 4 5
2 4 16
2 4 17
2 4 18
2 5 6
2 5 18
2 6 18
2 6 19
2 6 20
2 7 8
2 7 20
2 8 9
2 8 20
2 8 21
2 8 22
2 9 10
2 9 22
2 10 11
2 10 22
2 10 23
2 10 24
2 11 24
2 12 13
2 12 24
2 12 25
2 12 26
2 13 14
2 13 26
2 14 26
2 14 27
2 14 28
2 15 16
2 15 31
2 15 32
2 15 33
2 16 17
2 16 33
2 17 18
2 17 33
2 17 34
[...]
CELL_DATA 1023
SCALARS Strain double 
LOOKUP_TABLE default 
1043.70719
740.63695
762.68581
835.76300
1114.19160
816.45645
901.60672
763.12061
762.68481
902.75125
815.49602
762.17675
742.52054
1046.83556
840.87400
1003.54317
838.73936
663.75897
772.92066
738.21767
733.69004
871.14522
721.88644
898.28476
805.70005
899.23793
890.21115
809.49894
865.66496
930.40520
889.94513
850.38246
805.64502
930.59270
865.14646
809.70660
900.87587
738.13711
901.68459
737.31858
876.40881
991.02791
730.54424
779.80920
688.29943
827.51597
822.16615
969.71264
759.16644
702.53527
794.65215
776.24463
881.04244
891.56610
879.70637
924.97993
938.39839
897.01802
1060.49227
963.53776
812.90633
879.63369
938.29119
1024.06562
959.48514
846.12725
910.69317
972.17194
959.92572
841.19408
937.38295
976.12350
910.49748
837.53337
1065.48318
1022.93603
948.25945
885.96275
803.23524
951.04330
876.05386
905.27070
813.31334
936.64115
880.42108
860.99316
924.06916
792.28348
814.23268
763.59116
1139.16099
716.59203
791.18302
650.04466
680.83644
657.28581
906.44601
891.77166
894.38293
895.52406
873.71943
855.15667
905.03307
913.81801
900.74586
926.19668
906.15508
769.93019
907.73926
948.39695
930.62538
909.23153
924.37850
911.90642
929.88298
930.97526
910.24324
938.38757
928.86790
893.83778
923.48008
937.97707
909.91883
931.53683
909.63601
908.04946
905.72449
906.22471
932.03952
951.72118
905.09490
768.36313
891.28728
919.93026
912.69836
929.39206
904.17337
900.63435
873.76939
916.57691
744.43089
788.81735
741.93024
822.84086
769.63309
869.26229
895.24884
908.76129
920.68006
883.37188
906.86295
924.09133
935.66720
966.58706
935.64971
869.05171
914.24208
919.08783
943.57080
913.17195
931.04146
912.47577
927.36358
937.65201
945.53215
932.58241
927.19621
906.65208
934.65625
930.20730
942.37351
941.62973
938.32740
902.91830
925.99411
916.68078
943.25089
917.64122
932.31032
899.54004
938.04023
991.20617
938.00674
907.58894
919.13359
847.09923
962.48634
1020.92943
936.27281
949.64618
902.88536
1004.41488
902.57299
929.73837
718.44112
705.04697
1051.25386
636.52315
641.46225
871.91203
524.09740
922.26657
908.00748
904.96693
871.94218
926.80140
927.95393
943.92323
924.69372
924.62791
888.99253
937.52096
954.29233
949.36431
915.35518
920.82592
913.94888
931.30210
936.12985
951.68262
924.80989
929.68711
908.69827
933.60111
935.35751
946.65283
927.77152
933.79359
903.16179
932.79282
941.24128
946.76525
924.89108
933.91932
904.96548
924.79865
943.76148
947.31185
928.23142
946.65528
905.26691
936.27888
941.16277
940.24256
962.91024
959.17741
879.60532
875.71107
972.06117
944.35940
1022.59637
718.22298
890.72068
878.98166
708.45105
805.75204
887.52753
1155.51790
761.74320
797.54529
932.47620
929.53412
1053.15025
979.74357
938.17912
896.30185
949.45590
913.51693
865.12798
930.12952
921.02374
893.78149
945.16788
934.35890
890.68328
925.46662
921.63076
916.29630
938.27666
934.78760
897.20284
928.29265
928.47209
914.77984
941.61008
932.55265
892.66680
929.77848
926.97437
910.45442
945.91334
933.80691
893.15392
929.45145
924.04958
908.31073
943.76108
932.56548
896.09125
931.89489
934.85930
902.54924
954.70068
934.10313
884.75355
937.21301
954.10481
864.21123
1019.43483
947.55828
858.94835
955.09833
981.09810
894.80361
871.39537
691.02702
879.83963
828.59542
714.12361
1067.23747
770.21969
948.30231
810.13911
872.20753
895.56239
912.75067
949.94191
953.97019
807.31563
937.54121
962.65430
936.44397
953.82460
921.15675
929.66262
925.75275
943.75625
940.28445
950.02476
921.90680
923.85131
923.48655
947.05060
936.72787
948.94388
923.55124
925.20600
926.24251
946.48124
937.81361
947.97966
922.46217
925.72246
925.42870
946.42187
940.44393
949.29060
923.10807
920.10357
920.36172
947.32390
944.37799
952.77790
924.04692
911.68614
919.58688
950.22910
961.80535
961.18880
921.50033
900.94318
926.89148
950.84702
982.74388
984.65117
913.90951
911.93985
1088.54883
950.26081
802.19296
1098.00099
900.73605
930.52488
1227.48415
940.32051
790.77845
730.57215
817.56318
886.83119
878.44088
962.86511
831.13461
912.65463
901.24005
926.82593
914.43851
928.49353
930.53589
942.30726
935.95353
930.98690
884.96743
935.91326
934.14441
940.27983
930.00923
928.54442
882.47825
934.42838
935.47481
939.70021
928.90685
929.58975
883.53814
932.99384
933.20653
941.28186
928.69696
928.99639
884.53219
932.18717
932.89862
943.65493
927.10921
926.00957
889.02754
929.17282
930.28778
946.44442
923.69523
921.18967
894.18389
930.50690
928.83220
950.96103
918.97050
912.38563
899.30375
943.14960
928.11118
949.62248
923.08259
916.84050
884.19388
912.22191
915.21273
898.46920
829.35155
1173.29620
670.41870
630.02820
789.23787
858.75592
899.56104
977.64691
926.43187
780.42081
910.17215
904.12275
921.18966
934.16167
933.26257
913.44313
931.74592
934.94291
935.81539
946.41224
933.11966
880.02244
931.90362
935.35019
930.82946
945.39175
933.47044
877.57373
931.58444
934.19840
931.96849
943.36655
932.58402
880.16392
930.39622
932.65703
932.32442
940.51030
930.31202
882.81626
928.75304
930.74654
935.25363
936.78132
928.84186
887.15323
927.24005
929.07892
937.62409
923.01406
926.46718
894.93392
927.12039
936.74043
938.86356
877.30300
928.22649
900.96565
937.13543
1045.32609
911.93512
974.40408
951.70946
757.81475
926.77611
708.75291
1021.58766
804.62271
1246.76396
629.56990
529.30475
788.72604
730.63779
670.15832
926.34794
899.32816
910.46652
859.12308
912.66821
977.88137
932.90217
921.73037
931.29553
904.16931
941.92145
933.96803
933.15659
935.51403
932.13182
935.23907
939.80958
946.69817
933.41534
931.20307
931.65173
935.02491
939.68890
945.43882
932.45398
931.99283
930.20633
934.38322
941.46028
943.17518
930.05403
932.88614
928.52483
932.86360
942.63886
940.69784
928.37090
935.37295
926.48346
930.63931
946.25578
936.07552
926.54923
937.82157
926.98105
929.47459
951.09230
922.89794
927.89509
938.50541
936.16725
936.36104
950.24295
876.78282
951.58884
911.76826
926.39905
1045.55432
915.05563
974.13094
804.78652
1021.12023
708.53847
1173.61003
817.81917
948.45057
790.89379
831.22208
878.24526
901.30628
886.13626
953.84283
962.44022
930.92037
914.32454
935.56625
926.16901
920.56651
928.72753
933.87682
885.04811
929.45482
931.12440
921.87054
935.51277
935.32778
882.51585
929.24894
929.44926
923.44326
933.93839
934.03882
883.42584
928.58635
929.39067
922.68116
933.23121
932.04624
884.61896
926.48800
928.25961
922.26143
931.69890
930.73673
889.02207
924.48582
926.33832
924.49393
929.86454
929.39044
893.89785
918.66456
920.63021
921.94918
931.11760
928.52785
898.99105
924.15580
913.50246
914.24908
943.81091
911.35237
883.80369
897.69635
916.27148
900.80396
1227.24050
828.98744
809.87103
1155.30086
770.82560
949.55579
895.84844
807.17575
872.70871
1053.41821
913.25108
953.99544
962.80051
929.95879
937.56012
865.39522
935.51906
950.58852
944.10153
923.90466
926.13361
891.15076
939.79217
949.80606
947.11170
924.66236
922.98140
897.20767
936.70437
947.43074
946.83116
925.71715
926.55655
893.01265
937.90619
949.87849
946.44604
920.12056
925.46003
892.71144
940.60246
952.47983
947.86388
911.68527
921.15192
896.29115
943.65330
960.95127
949.04219
901.43978
919.20147
885.33238
960.22512
985.07266
949.54173
911.32834
925.86350
859.09406
982.98717
1098.40651
950.67475
929.88920
1089.35954
828.57237
801.59266
940.25971
762.43268
886.99068
806.12063
929.54241
979.77257
797.49250
922.21148
932.19963
914.12703
895.88508
930.25415
938.34381
944.62734
949.84449
934.81221
893.45607
925.17561
920.83761
950.57400
945.32419
934.16592
915.62055
928.52512
921.29418
951.25450
937.73993
933.43252
914.58961
930.31560
928.65062
947.72701
942.15328
933.06581
910.91347
929.68286
926.27948
946.42644
945.80420
933.61411
909.06983
931.71525
923.83386
948.01549
944.52928
933.96114
902.36688
935.98566
934.71492
941.09909
955.26036
946.03016
863.57907
955.47436
954.02374
944.47193
1019.33587
880.15744
871.40860
714.35897
980.76548
691.72204
1067.36161
524.20304
640.91091
907.84610
636.22221
822.39900
871.23445
927.88174
872.31838
925.32288
904.91409
884.04355
927.16802
955.08030
888.61437
916.20896
924.93585
869.52720
938.37547
936.07998
914.05104
925.18433
920.49434
911.63975
932.04316
935.27549
909.77763
928.32981
930.87837
906.30054
933.98943
941.85537
903.06279
925.28052
934.07696
903.09045
933.52499
943.70059
905.02487
928.33733
934.59859
899.96861
925.63094
940.99221
905.52831
963.45171
947.77560
846.95633
935.91934
972.20499
879.20776
1022.51267
959.00726
902.39198
876.23743
879.08197
894.76584
891.54443
708.91720
718.50806
1050.77554
742.08951
770.02052
791.00852
789.01123
920.80765
895.52596
906.51731
869.43977
894.54465
908.17473
935.45330
934.48565
914.24805
923.83466
901.95054
966.72888
931.16138
944.31664
928.14171
919.15863
930.84049
913.41421
927.67333
946.49716
934.54297
937.52466
910.60270
933.04017
938.13956
942.13302
926.94276
929.56963
910.02791
941.94387
931.92721
943.56471
938.47203
915.81827
931.19212
917.84764
919.81486
938.37239
961.86754
990.73111
912.93579
908.18035
1003.93590
935.90899
930.32155
902.60836
1020.89490
917.60105
949.73535
705.49852
718.25705
650.63319
716.59776
892.38621
657.53135
895.02778
681.39429
759.49513
906.81644
913.83654
854.77799
927.31916
874.38966
879.91517
905.07152
948.49731
769.29811
909.01399
906.25322
812.90798
907.34023
930.72564
911.74286
938.28724
924.21644
910.45848
929.27234
938.14062
893.68879
932.56949
928.90973
910.40936
922.96267
905.67745
908.54198
950.90919
909.70653
802.67226
904.74603
919.38675
768.46201
929.62468
904.78069
879.73094
890.62700
874.61931
900.17373
744.95439
904.67506
764.04417
1139.09841
969.78740
702.35635
822.39914
891.60091
776.25417
924.80436
794.65988
664.10277
880.81402
963.77273
896.64829
879.47238
938.49086
722.10830
1060.61128
846.40530
1024.34670
972.42029
938.81442
865.66430
958.97579
976.46412
840.75612
836.84108
958.95008
865.17054
938.06893
886.61939
1023.51557
951.06084
1065.82737
736.76713
947.82391
936.88580
905.07174
861.25851
875.33228
687.98593
812.85197
814.54677
792.46656
923.96196
838.52253
773.30324
1003.58936
871.15218
733.81056
898.46964
738.28887
740.95200
809.41867
835.28491
898.46381
929.83252
805.71711
901.66042
890.88212
929.40506
849.97125
809.88752
890.61282
902.67860
806.02932
901.52429
901.06211
840.87976
875.90940
742.10473
738.43962
779.52706
730.64653
827.10907
991.35333
1043.28084
762.40495
816.06310
763.62938
1114.25553
762.77769
815.25028
762.43359
1046.75027
0.10000
