# vtk DataFile Version 3.0
Point representing Sub_cellular elem model
ASCII

DATASET UNSTRUCTURED_GRID
POINTS 364 float
-0.81118 -0.18483 1.99157 
-0.85667 -0.03435 2.00189 
-0.85704 0.07703 2.00907 
-0.81301 0.22775 2.01876 
-0.74129 -0.37450 1.97396 
-0.78768 -0.28585 1.98242 
-0.74936 -0.22294 1.97722 
-0.83039 -0.11091 1.98963 
-0.76983 -0.05865 2.00026 
-0.80630 0.02238 1.99248 
-0.77011 0.10183 2.01058 
-0.83120 0.15450 2.00748 
-0.75128 0.26801 2.00912 
-0.78964 0.32971 2.02263 
-0.74660 0.41908 2.02474 
-0.66094 -0.51886 1.96430 
-0.70717 -0.45157 1.97404 
-0.67530 -0.37885 1.97112 
-0.71654 -0.30287 1.98888 
-0.67820 -0.21754 1.98550 
-0.74408 -0.13550 1.99716 
-0.68398 -0.06372 1.98912 
-0.72296 0.02137 2.01042 
-0.68427 0.10880 2.00092 
-0.74482 0.17847 2.01785 
-0.67845 0.26185 2.01753 
-0.71901 0.34640 2.03157 
-0.67787 0.42358 2.02465 
-0.71529 0.49511 2.03517 
-0.66728 0.57416 2.03458 
-0.57777 -0.66498 1.95921 
-0.60692 -0.59932 1.95976 
-0.58741 -0.53550 1.97385 
-0.62983 -0.45545 1.96804 
-0.58825 -0.38046 1.98504 
-0.62789 -0.29935 1.97619 
-0.59724 -0.21622 1.99546 
-0.64188 -0.13754 1.99012 
-0.59446 -0.05940 2.00599 
-0.63940 0.02196 2.00096 
-0.59490 0.10189 2.01752 
-0.64264 0.18091 2.01155 
-0.59856 0.25882 2.02753 
-0.62949 0.34347 2.01799 
-0.59083 0.42278 2.03871 
-0.63629 0.49893 2.02912 
-0.59196 0.57564 2.04764 
-0.49978 -0.67700 1.95304 
-0.54216 -0.61044 1.95582 
-0.49833 -0.53578 1.96334 
-0.54445 -0.45778 1.96271 
-0.49898 -0.37787 1.97357 
-0.55078 -0.29636 1.97482 
-0.50461 -0.21757 1.98553 
-0.55082 -0.13871 1.98393 
-0.50389 -0.05844 1.99668 
-0.55010 0.02267 1.99457 
-0.50435 0.10259 2.00822 
-0.55193 0.18395 2.00636 
-0.50592 0.26255 2.01740 
-0.55257 0.34171 2.01771 
-0.50023 0.42539 2.02751 
-0.54627 0.50376 2.02778 
-0.50301 0.59580 2.03753 
-0.58162 0.64915 2.04086 
-0.51906 0.68444 2.04497 
-0.46222 -0.74113 1.95409 
-0.41860 -0.69413 1.95052 
-0.45396 -0.61678 1.96862 
-0.41024 -0.53862 1.95639 
-0.45246 -0.45906 1.97990 
-0.41198 -0.37693 1.96747 
-0.45750 -0.29785 1.98988 
-0.41340 -0.21777 1.97816 
-0.45768 -0.13884 2.00069 
-0.41332 -0.05777 1.98931 
-0.45750 0.02126 2.01243 
-0.41421 0.10331 2.00051 
-0.45902 0.18204 2.02308 
-0.41602 0.26429 2.01150 
-0.45991 0.34287 2.03310 
-0.41550 0.42599 2.02286 
-0.45435 0.50818 2.04559 
-0.41271 0.59403 2.03469 
-0.45040 0.67077 2.05408 
-0.42938 0.73935 2.04884 
-0.33569 -0.79324 1.94880 
-0.39905 -0.74225 1.94772 
-0.32817 -0.70524 1.95929 
-0.36713 -0.62047 1.95837 
-0.31707 -0.54191 1.97220 
-0.36404 -0.45932 1.96997 
-0.31835 -0.38018 1.98320 
-0.36642 -0.29869 1.98174 
-0.31972 -0.22018 1.99486 
-0.36706 -0.13905 1.99312 
-0.32010 -0.05990 2.00590 
-0.36749 0.02159 2.00432 
-0.32114 0.10075 2.01805 
-0.36878 0.18258 2.01549 
-0.32281 0.26172 2.02866 
-0.36968 0.34369 2.02498 
-0.32285 0.42343 2.03924 
-0.36687 0.50820 2.03569 
-0.31963 0.58984 2.05066 
-0.36235 0.68240 2.04607 
-0.29934 0.75645 2.05995 
-0.36631 0.77173 2.05156 
-0.22903 -0.83755 1.94598 
-0.26326 -0.76935 1.93846 
-0.22357 -0.69431 1.95909 
-0.27817 -0.62146 1.94983 
-0.23067 -0.54237 1.96670 
-0.27506 -0.45994 1.96016 
-0.22941 -0.38113 1.97733 
-0.27520 -0.29913 1.97132 
-0.23006 -0.22056 1.98967 
-0.27589 -0.13902 1.98342 
-0.23086 -0.05989 2.00100 
-0.27673 0.02178 1.99505 
-0.23188 0.10085 2.01293 
-0.27818 0.18261 2.00716 
-0.23328 0.26148 2.02306 
-0.27967 0.34361 2.01673 
-0.23452 0.42217 2.03298 
-0.28072 0.50647 2.02761 
-0.23406 0.58506 2.04361 
-0.27575 0.67407 2.03955 
-0.21690 0.76440 2.05528 
-0.27237 0.82248 2.05483 
-0.13404 -0.84285 1.94041 
-0.17505 -0.77661 1.95343 
-0.12968 -0.70148 1.94260 
-0.18250 -0.62495 1.96386 
-0.13942 -0.54329 1.95431 
-0.18191 -0.46351 1.97568 
-0.13798 -0.38207 1.96477 
-0.18186 -0.30236 1.98727 
-0.13847 -0.22084 1.97674 
-0.18266 -0.14163 1.99970 
-0.13929 -0.06000 1.98872 
-0.18353 0.01904 2.01153 
-0.14030 0.10064 2.00028 
-0.18484 0.17931 2.02342 
-0.14139 0.26046 2.01226 
-0.18630 0.33890 2.03420 
-0.14287 0.41946 2.02273 
-0.18748 0.49820 2.04478 
-0.14361 0.57733 2.03218 
-0.18309 0.65982 2.05563 
-0.13293 0.73515 2.04029 
-0.18269 0.85103 2.05681 
-0.06065 -0.83328 1.94304 
-0.08875 -0.77649 1.95167 
-0.03917 -0.70544 1.95596 
-0.09097 -0.62248 1.96366 
-0.04615 -0.54442 1.96889 
-0.09338 -0.46386 1.97336 
-0.04512 -0.38391 1.97998 
-0.09355 -0.30266 1.98447 
-0.04565 -0.22251 1.99169 
-0.09423 -0.14147 1.99652 
-0.04642 -0.06150 2.00433 
-0.09500 0.01936 2.00832 
-0.04719 0.09916 2.01595 
-0.09587 0.17962 2.02037 
-0.04800 0.25916 2.02805 
-0.09681 0.33916 2.03153 
-0.04903 0.41862 2.03867 
-0.09750 0.49723 2.04166 
-0.04992 0.57776 2.04827 
-0.09487 0.65308 2.05280 
-0.04345 0.74406 2.05786 
-0.10670 0.81815 2.06295 
-0.06844 0.87789 2.06073 
0.00077 -0.84215 1.94501 
0.06198 -0.83268 1.94104 
0.00043 -0.78797 1.93838 
0.03958 -0.70513 1.95559 
-0.00019 -0.62319 1.94781 
0.04530 -0.54403 1.96832 
-0.00078 -0.46349 1.95923 
0.04298 -0.38356 1.97984 
-0.00144 -0.30204 1.97040 
0.04224 -0.22217 1.99147 
-0.00206 -0.14061 1.98218 
0.04174 -0.06112 2.00405 
-0.00270 0.02018 1.99458 
0.04123 0.09953 2.01564 
-0.00332 0.18058 2.00625 
0.04084 0.25957 2.02743 
-0.00394 0.34025 2.01797 
0.04058 0.41903 2.03837 
-0.00462 0.49934 2.02745 
0.04027 0.57821 2.04730 
-0.00525 0.65942 2.03657 
0.03243 0.74441 2.05735 
-0.00590 0.82845 2.04912 
0.05633 0.87842 2.06024 
0.13546 -0.84155 1.93708 
0.08974 -0.77575 1.94985 
0.12984 -0.70026 1.94087 
0.09076 -0.62174 1.96303 
0.13844 -0.54208 1.95324 
0.09188 -0.46312 1.97277 
0.13575 -0.38094 1.96446 
0.09077 -0.30188 1.98404 
0.13492 -0.21970 1.97577 
0.09018 -0.14073 1.99618 
0.13455 -0.05882 1.98802 
0.08970 0.02009 2.00814 
0.13429 0.10168 2.00031 
0.08930 0.18038 2.01996 
0.13418 0.26160 2.01153 
0.08897 0.33987 2.03146 
0.13441 0.42054 2.02235 
0.08839 0.49805 2.04063 
0.13393 0.57847 2.03069 
0.08458 0.65385 2.05174 
0.12190 0.73619 2.03947 
0.09508 0.81900 2.06183 
0.23046 -0.83544 1.94180 
0.17604 -0.77501 1.95006 
0.22388 -0.69236 1.95604 
0.18228 -0.62339 1.96157 
0.22978 -0.54038 1.96432 
0.18041 -0.46207 1.97485 
0.22725 -0.37924 1.97638 
0.17909 -0.30088 1.98656 
0.22664 -0.21856 1.98761 
0.17863 -0.14014 1.99823 
0.22614 -0.05808 2.00028 
0.17824 0.02048 2.01106 
0.22592 0.10276 2.01182 
0.17828 0.18079 2.02280 
0.22603 0.26333 2.02286 
0.17843 0.34038 2.03388 
0.22602 0.42400 2.03316 
0.17829 0.49971 2.04459 
0.22426 0.58694 2.04279 
0.17271 0.66130 2.05440 
0.20569 0.76618 2.05405 
0.17081 0.85247 2.05607 
0.33673 -0.79026 1.94458 
0.26406 -0.76687 1.93423 
0.32858 -0.70238 1.95513 
0.27780 -0.61898 1.94658 
0.31622 -0.53926 1.96942 
0.27337 -0.45760 1.95820 
0.31630 -0.37755 1.98105 
0.27227 -0.29692 1.96980 
0.31630 -0.21756 1.99262 
0.27184 -0.13664 1.98174 
0.31539 -0.05738 2.00532 
0.27136 0.02396 1.99418 
0.31516 0.10335 2.01661 
0.27154 0.18491 2.00597 
0.31557 0.26417 2.02861 
0.27179 0.34577 2.01722 
0.31438 0.42590 2.03972 
0.27156 0.50851 2.02855 
0.30977 0.59239 2.05027 
0.26532 0.67625 2.03837 
0.28814 0.75873 2.05934 
0.26071 0.82461 2.05438 
0.39968 -0.73873 1.94283 
0.41882 -0.69042 1.94557 
0.36677 -0.61730 1.95432 
0.40910 -0.53507 1.95177 
0.36243 -0.45622 1.96672 
0.40960 -0.37334 1.96306 
0.36356 -0.29558 1.97885 
0.40988 -0.21426 1.97570 
0.36295 -0.13607 1.99177 
0.40851 -0.05442 1.98768 
0.36215 0.02454 2.00351 
0.40816 0.10670 1.99901 
0.36217 0.18554 2.01476 
0.40876 0.26764 2.01112 
0.36181 0.34659 2.02514 
0.40698 0.42923 2.02276 
0.35770 0.51107 2.03581 
0.40289 0.59726 2.03467 
0.35179 0.68526 2.04560 
0.41842 0.74267 2.04866 
0.35506 0.77461 2.05108 
0.46289 -0.73706 1.94788 
0.49986 -0.67259 1.94647 
0.45375 -0.61282 1.96310 
0.49731 -0.53138 1.95746 
0.45100 -0.45516 1.97479 
0.49671 -0.37354 1.96830 
0.45473 -0.29408 1.98601 
0.50108 -0.21334 1.98182 
0.45371 -0.13519 1.99889 
0.49911 -0.05431 1.99423 
0.45224 0.02498 2.01054 
0.49837 0.10668 2.00604 
0.45243 0.18560 2.02233 
0.49868 0.26650 2.01747 
0.45203 0.34640 2.03363 
0.49168 0.42929 2.02759 
0.44518 0.51172 2.04535 
0.49315 0.59971 2.03777 
0.43991 0.67426 2.05454 
0.50848 0.68846 2.04512 
0.57781 -0.65988 1.95153 
0.54164 -0.60562 1.94855 
0.58655 -0.53044 1.96675 
0.54275 -0.45305 1.95704 
0.58619 -0.37549 1.97926 
0.54784 -0.29159 1.96967 
0.59387 -0.21120 1.99036 
0.54658 -0.13405 1.98024 
0.58987 -0.05449 2.00196 
0.54461 0.02724 1.99172 
0.58898 0.10664 2.01497 
0.54520 0.18853 2.00486 
0.59140 0.26352 2.02631 
0.54467 0.34606 2.01791 
0.58232 0.42735 2.03894 
0.53719 0.50804 2.02801 
0.58218 0.58011 2.04913 
0.57133 0.65360 2.04238 
0.60638 -0.59396 1.95156 
0.65973 -0.51304 1.95583 
0.62816 -0.44995 1.96059 
0.67297 -0.37297 1.96381 
0.62492 -0.29397 1.97015 
0.67464 -0.21172 1.97897 
0.63770 -0.13212 1.98496 
0.67915 -0.05791 1.98380 
0.63397 0.02728 1.99705 
0.67813 0.11452 1.99771 
0.63601 0.18607 2.00953 
0.67123 0.26726 2.01651 
0.62160 0.34846 2.01794 
0.66940 0.42884 2.02570 
0.62717 0.50386 2.03006 
0.65759 0.57930 2.03634 
0.70555 -0.44541 1.96548 
0.73900 -0.36808 1.96588 
0.71373 -0.29675 1.98157 
0.74578 -0.21649 1.97000 
0.73998 -0.12926 1.99076 
0.76504 -0.05220 1.99434 
0.71763 0.02735 2.00510 
0.76409 0.10806 2.00674 
0.73826 0.18436 2.01574 
0.74397 0.27405 2.00832 
0.71108 0.35194 2.03145 
0.73813 0.42489 2.02585 
0.70621 0.50062 2.03628 
0.78469 -0.27910 1.97468 
0.80740 -0.17798 1.98439 
0.82603 -0.10393 1.98351 
0.85170 -0.02725 1.99599 
0.80087 0.02921 1.98698 
0.85120 0.08407 2.00418 
0.82473 0.16132 2.00398 
0.80605 0.23419 2.01696 
0.78190 0.33587 2.02269 
0.91878 0.39477 2.00000 
0.00000 0.00000 -1.50000 
CELLS 1023 3068
2 0 5
2 0 6
2 0 7
2 0 20
2 1 2
2 1 7
2 1 8
2 1 9
2 2 9
2 2 10
2 2 11
2 3 11
2 3 12
2 3 13
2 3 24
2 4 5
2 4 16
2 4 17
2 4 18
2 5 6
2 5 18
2 6 18
2 6 19
2 6 20
2 7 8
2 7 20
2 8 9
2 8 20
2 8 21
2 8 22
2 9 10
2 9 22
2 10 11
2 10 22
2 10 23
2 10 24
2 11 24
2 12 13
2 12 24
2 12 25
2 12 26
2 13 14
2 13 26
2 14 26
2 14 27
2 14 28
2 15 16
2 15 31
2 15 32
2 15 33
2 16 17
2 16 33
2 17 18
2 17 33
2 17 34
[...]
CELL_DATA 1023
SCALARS Strain double 
LOOKUP_TABLE default 
1040.24740
739.31373
762.95327
833.69050
1115.10357
817.63769
900.86512
763.47762
762.97488
903.05883
815.84440
762.16473
742.23381
1045.70964
840.41811
1003.08516
841.84369
661.01144
771.40344
737.51606
733.39055
870.93182
717.38316
897.32652
805.98021
899.68245
890.91444
810.15886
866.20866
931.91283
890.55956
851.52601
806.20211
931.57060
865.64399
809.36105
901.45821
738.03356
900.95139
734.69158
875.99023
991.14691
730.33695
779.35140
687.77674
827.86498
821.27559
969.11378
758.82521
706.29315
793.48352
775.70953
881.56139
890.30380
880.67026
925.98152
935.10021
895.16285
1057.54035
963.94843
814.79229
878.75503
938.66865
1023.58255
958.82706
848.91928
910.95802
972.03266
959.80404
839.93063
937.36958
976.52121
910.61663
838.38216
1064.75540
1022.97071
947.19198
886.07309
804.66536
950.75333
876.31932
904.82355
813.04321
937.20498
880.69019
860.69775
923.96957
792.25463
814.53637
763.51610
1139.12972
717.46732
790.56717
651.30501
680.98646
657.27753
906.78776
892.82469
896.00775
894.01237
873.20473
854.77438
906.06314
915.29747
899.41058
925.30655
905.78552
770.78462
905.11322
948.09728
930.78942
909.74567
926.69669
911.77437
929.84482
930.72379
909.57227
938.88844
928.70954
894.28943
924.18736
937.63462
909.33231
932.01606
908.31031
908.13643
905.28717
906.09980
931.70433
952.03724
905.27088
768.49934
891.00207
919.69588
912.36130
929.73146
904.19266
900.55174
873.61660
916.59877
744.36459
788.51320
742.22661
829.07158
771.54226
868.00490
892.49823
905.15451
924.12829
883.11842
908.04987
924.81980
934.88045
964.83739
936.90195
871.24114
914.93693
918.55652
944.01169
913.10856
930.82390
913.98397
927.93813
937.55373
945.34713
932.75806
927.17570
907.71641
934.52718
929.96908
942.18700
941.72158
938.50868
903.68948
925.67764
916.44512
943.15013
917.83460
932.49066
900.06724
937.84264
990.85408
938.29273
907.89848
919.11916
847.56079
962.59746
1020.68631
936.32859
949.57221
902.92015
1004.44398
902.61928
929.76073
718.46489
705.02398
1051.24337
641.24957
634.00553
868.49674
519.10337
914.32770
900.95018
902.85850
874.00951
929.86777
924.30428
944.59818
926.77005
923.08790
888.81838
938.60386
952.57876
948.90708
915.54577
920.68033
913.50322
931.61038
935.42330
950.93449
924.61343
930.18418
908.36714
933.44532
935.04197
946.09628
927.61483
934.32240
902.77113
932.58857
941.07442
946.42397
924.83450
934.36044
904.62893
924.66020
943.69360
947.12027
928.14053
946.96116
904.97433
936.12664
941.20273
940.16960
962.72501
959.35006
879.42117
875.64050
972.11474
944.36010
1022.51168
718.19409
890.70649
878.94844
708.46988
812.40003
888.37697
1154.30484
768.66382
806.97830
931.98111
934.82330
1050.66386
979.15905
940.82567
892.76398
949.33424
912.37038
864.78399
927.92620
922.31196
894.17494
945.22245
935.25092
890.44351
924.89649
921.83751
917.17414
938.48732
935.44920
897.12861
928.45187
928.16619
915.82866
941.89099
932.74176
892.64770
930.17888
926.52932
911.28056
946.16457
933.75469
893.12135
929.82322
923.69800
908.85215
943.94314
932.46181
896.02849
932.17518
934.66863
902.88638
954.83645
934.01617
884.65557
937.38265
954.03749
864.43399
1019.48617
947.49372
858.90118
955.18514
981.09731
894.80154
871.42593
691.01297
879.80958
828.58259
714.10429
1067.22249
765.68892
951.98927
816.42943
872.65955
896.58029
914.03618
956.09457
954.91830
806.44337
936.99256
966.63718
937.53720
955.50169
919.85488
930.46613
925.78950
944.04035
940.08467
950.06312
921.92092
924.37692
923.54622
946.41912
936.47712
948.75901
923.95212
925.14090
926.27281
945.77093
937.63144
947.98079
922.92344
925.37588
925.49940
945.89041
940.31613
949.39815
923.46917
919.73829
920.43906
946.98896
944.30720
952.89412
924.25911
911.40521
919.62888
950.04748
961.77090
961.29379
921.62709
900.77318
926.88283
950.76186
982.74027
984.72983
913.97242
911.85338
1088.52882
950.23699
802.16188
1098.04433
900.75541
930.52268
1227.48881
940.32459
788.90214
739.64676
810.26172
883.32173
862.17054
952.80706
858.32057
914.76151
903.61573
927.21816
914.62928
927.78690
932.14375
943.10597
936.59310
930.71371
884.54684
936.29312
934.53046
940.18624
930.04207
928.51019
882.58504
934.69060
935.58840
939.29229
928.92295
929.79744
883.86441
933.09162
933.26911
940.86495
928.76943
929.24972
884.84950
932.19886
932.92742
943.35507
927.21142
926.21160
889.24849
929.15390
930.29236
946.26782
923.77865
921.32071
894.29791
930.48072
928.82916
950.87314
919.02326
912.46093
899.35389
943.13068
928.11013
949.58679
923.11241
916.87519
884.22415
912.21877
915.21660
898.47864
829.35763
1173.29937
638.49128
619.81444
760.91961
866.44480
907.92454
980.02846
931.04508
786.56944
912.90775
900.65344
920.55053
933.89409
935.04657
913.51542
931.76069
935.23241
935.75332
945.99387
933.29748
880.01647
931.86740
935.45270
930.79178
945.10952
933.48152
877.95943
931.72024
934.02420
931.92069
943.20673
932.64069
880.65038
930.56313
932.41666
932.28934
940.43059
930.38426
883.20753
928.87819
930.55353
935.23861
936.74675
928.90097
887.39801
927.31340
928.96200
937.61934
923.00317
926.50200
895.05286
927.15723
936.67604
938.85868
877.30484
928.24184
901.01469
937.14947
1045.30205
911.92801
974.40638
951.71784
757.81358
926.77944
708.75181
1021.58722
804.62560
1246.76744
619.72580
544.92159
760.33372
740.17702
638.49506
931.25603
907.73911
913.11132
867.14209
914.77388
980.24435
934.68711
921.18418
931.32509
900.78595
942.71702
933.71695
933.32537
935.44505
932.09698
935.52159
939.72321
946.28670
933.42276
931.16280
931.78619
935.12641
939.28553
945.15720
932.51101
931.94487
930.37164
934.21325
941.04490
943.01354
930.12729
932.85322
928.64938
932.62908
942.33680
940.61681
928.43048
935.35931
926.55710
930.44870
946.07742
936.04084
926.58397
937.81848
927.01871
929.35830
951.00357
922.88751
927.90941
938.50076
936.18213
936.29525
950.20738
876.78649
951.59631
911.76240
926.40287
1045.52936
915.05969
974.13417
804.78909
1021.11979
708.53714
1173.61214
810.36991
952.08097
789.03957
858.49468
861.96776
903.66247
882.57650
954.80726
952.33896
932.55007
914.56020
936.19983
926.57126
919.25766
928.00845
934.25658
884.61047
929.49076
930.84469
921.87470
935.88313
935.44078
882.61695
929.26503
929.41332
923.83546
934.20055
934.10391
883.75290
928.65920
929.59385
923.14112
933.33013
932.07270
884.93368
926.58527
928.51079
922.61457
931.71127
930.74382
889.24139
924.57013
926.54113
924.71058
929.84531
929.38889
894.01287
918.71713
920.76170
922.07783
931.09080
928.52642
899.03886
924.18636
913.57809
914.31456
943.79093
911.34833
883.83349
897.70557
916.30739
900.82342
1227.24492
828.99360
816.37229
1154.06507
766.29210
955.84450
897.01217
806.34861
873.15385
1050.84269
914.50745
955.69089
966.80167
930.75395
936.99575
865.03289
936.60522
950.63176
944.40756
924.43209
926.17580
890.90734
939.59409
949.61580
946.49205
924.60234
923.03834
897.13121
936.45538
947.43548
946.12955
925.37461
926.59379
892.98750
937.72565
949.98218
945.91700
919.75265
925.52871
892.67801
940.47377
952.59709
947.53182
911.40697
921.23564
896.22727
943.57810
961.05812
948.85663
901.26887
919.24062
885.23286
960.18633
985.15224
949.45445
911.23911
925.85110
859.04503
982.98273
1098.45136
950.65071
929.88761
1089.33887
828.55820
801.56005
940.26357
769.40974
887.86028
812.79512
934.89158
979.15618
806.97407
914.32120
931.65939
912.96717
892.28309
928.05262
940.98459
945.29560
949.72333
935.69663
893.80468
924.59662
922.12607
950.11690
945.37646
934.82562
916.48113
928.67848
921.50475
950.51608
937.95418
933.61990
915.63916
930.70542
928.34966
947.17412
942.43033
933.01639
911.74812
930.05750
925.85694
946.08813
946.05869
933.50979
909.61898
931.99339
923.48433
947.82566
944.71048
933.87114
902.70455
936.15503
934.52433
941.02810
955.39771
945.96263
863.80157
955.56254
953.95962
944.47343
1019.38859
880.12663
871.44036
714.33892
980.76495
691.70697
1067.34500
519.27464
633.32219
900.79026
641.12740
828.85065
867.85304
924.19408
874.35961
927.37791
902.78961
883.75254
930.20702
953.33645
888.44040
916.39946
923.38962
871.67607
939.44859
935.37731
913.61882
924.99675
920.33456
913.13429
932.34656
934.96438
909.44333
928.18205
931.36238
907.35970
933.83768
941.69741
902.67475
925.22769
934.59606
903.85382
933.32617
943.63740
904.68511
928.24935
935.03365
900.51115
925.49264
941.03489
905.22684
963.26625
948.07995
847.42294
935.76590
972.25726
879.01962
1022.42665
959.18132
902.43609
876.16604
879.04725
894.76383
891.52844
708.93641
718.47856
1050.76571
742.29805
771.97827
790.39645
788.66451
924.30819
892.73464
907.62898
868.15795
896.19007
904.59327
936.71478
933.71958
914.96013
924.60459
900.66128
964.98894
930.94210
944.74177
928.71534
918.62405
931.01070
913.33711
927.64342
946.31185
934.42795
937.44481
909.93887
933.21580
938.31433
941.95429
926.61453
929.33745
909.43581
942.02502
932.11144
943.46518
938.28318
915.59332
930.87088
918.04770
919.79437
938.66043
961.98379
990.37280
912.59534
908.49194
1003.96630
935.96807
930.34254
902.64471
1020.65087
917.62064
949.65992
705.47511
718.28062
651.86304
717.44707
893.39384
657.52774
893.53037
681.62691
759.14406
907.19494
915.31273
854.43616
926.42697
873.89284
880.85527
906.10670
948.20331
770.12674
909.50932
905.89423
814.70487
904.73967
930.48419
911.59851
938.77195
926.52014
910.72254
929.23656
937.80493
894.13150
933.04049
928.75401
910.52999
923.67285
905.55353
908.62218
951.21628
908.38208
804.09979
904.31327
919.15031
768.59016
929.96337
904.96503
879.99872
890.34027
874.46627
900.08991
744.88659
904.69122
763.96817
1139.06602
969.22921
706.08272
821.51534
890.34862
775.74571
925.79286
793.51589
661.37359
881.32654
964.15196
894.81079
878.56800
935.22773
717.70469
1057.69466
849.15937
1023.87220
972.29092
939.18077
866.20335
958.33755
976.85381
839.51345
837.69976
958.82710
865.66988
938.05986
886.72276
1023.54436
950.77068
1065.09682
734.15046
946.75143
937.44625
904.62380
860.95839
875.59348
687.45854
812.57644
814.85076
792.43886
923.86132
841.59885
771.81093
1003.14287
870.96738
733.51371
897.54231
737.60633
739.65863
810.06943
833.23742
898.91391
931.33745
805.99995
900.92470
891.58063
930.38785
851.11095
809.54220
891.22501
902.98029
806.58914
900.79449
901.64206
840.42171
875.49577
741.81961
738.32962
779.07143
730.43763
827.46406
991.47114
1039.85140
762.65391
817.23376
763.98548
1115.16594
763.06731
815.60031
762.41895
1045.62187
0.10000
