# vtk DataFile Version 3.0
Point representing Sub_cellular elem model
ASCII

DATASET UNSTRUCTURED_GRID
POINTS 364 float
-2.74240 -0.95245 1.50735 
-3.14807 0.12905 1.57566 
-2.94953 0.72450 1.76907 
-2.55197 0.33355 2.00157 
-2.46349 -0.74963 1.78236 
-2.10291 -1.16864 1.81545 
-2.53965 -0.93963 1.64352 
-2.98505 -0.45455 1.54285 
-2.91514 -0.13001 1.68479 
-2.95070 0.33276 1.73062 
-2.72383 0.62792 1.89692 
-2.34627 0.86379 2.10989 
-2.53513 0.90779 2.00710 
-2.76784 0.84818 1.89506 
-2.71824 1.41965 1.88968 
-1.97251 -1.84027 1.51521 
-2.37362 -1.40558 1.50027 
-2.28285 -1.22886 1.66338 
-2.30425 -0.97785 1.76494 
-2.41523 -0.60628 1.87173 
-2.71458 -0.53807 1.70571 
-2.61357 -0.17800 1.88784 
-2.70652 0.18038 1.87901 
-2.44094 0.26057 2.05162 
-2.47777 0.61263 2.03256 
-2.18186 0.77485 2.18822 
-2.50232 1.22628 2.00874 
-2.41714 1.61362 1.98356 
-2.46802 1.97052 1.88741 
-1.95026 2.36794 1.90310 
-1.10278 -1.85544 2.34517 
-1.46559 -1.97949 1.88678 
-1.71823 -1.80395 1.74973 
-2.02134 -1.53186 1.67389 
-2.02632 -1.11934 1.89810 
-2.08654 -0.81103 2.00118 
-2.09702 -0.45759 2.13941 
-2.35713 -0.29632 2.02125 
-2.06542 -0.20144 2.22204 
-2.32343 -0.04705 2.09372 
-2.02164 0.08544 2.27183 
-2.13914 0.39760 2.21812 
-1.86494 0.59965 2.33915 
-2.21602 1.08924 2.15020 
-2.18644 1.41758 2.10628 
-2.18162 1.96983 1.96931 
-1.86167 2.16556 1.97919 
-1.12291 -1.46879 2.61251 
-1.31510 -1.76204 2.16608 
-1.56516 -1.64886 1.96852 
-1.80028 -1.38039 1.92844 
-1.81127 -0.92291 2.15717 
-1.84981 -0.65111 2.23835 
-1.56815 -0.60240 2.42585 
-1.80963 -0.38388 2.33488 
-1.50894 -0.30408 2.49775 
-1.76761 -0.09860 2.39034 
-1.47371 0.03113 2.52035 
-1.72626 0.24386 2.41009 
-1.50474 0.48836 2.47713 
-1.91955 0.90826 2.28815 
-1.90051 1.22221 2.23820 
-2.01457 1.69339 2.08828 
-1.75593 1.95262 2.04890 
-1.53901 1.80856 2.12815 
-2.07590 2.06496 1.99469 
-1.45569 -1.15656 2.55435 
-1.58821 -1.20931 2.29008 
-1.31224 -1.45056 2.38554 
-1.51083 -1.39752 2.15528 
-1.64699 -1.14428 2.18296 
-1.34136 -1.18896 2.39914 
-1.47137 -0.91651 2.40897 
-1.13666 -0.86106 2.58501 
-1.26987 -0.54304 2.57811 
-0.96064 -0.42716 2.69022 
-1.21114 -0.18690 2.62058 
-0.92745 -0.02567 2.69126 
-1.21555 0.21490 2.59474 
-1.13178 0.52529 2.57604 
-1.59182 0.80012 2.40785 
-1.55049 1.13156 2.34332 
-1.73034 1.50720 2.20624 
-1.48967 1.75474 2.14653 
-1.70459 2.23228 1.93335 
-1.43177 2.43767 1.85112 
-2.09090 -0.93777 1.60419 
-1.84930 -1.02421 2.10605 
-1.89704 -1.17512 1.77750 
-1.71067 -1.28230 1.97566 
-1.36566 -1.65944 1.98654 
-1.23353 -1.49588 2.31613 
-0.94821 -1.50111 2.45536 
-1.01312 -1.17235 2.56344 
-0.68578 -1.04901 2.65548 
-0.80316 -0.72357 2.69384 
-0.45319 -0.53984 2.73564 
-0.66013 -0.26541 2.74602 
-0.42557 -0.03529 2.74662 
-0.77440 0.24083 2.69382 
-0.77437 0.56358 2.61943 
-1.23656 0.82124 2.48454 
-1.14101 1.13161 2.38577 
-1.34272 1.42409 2.27008 
-1.15602 1.78619 2.10133 
-1.42621 2.08764 2.00590 
-1.60581 2.26994 1.94887 
-1.35628 1.85665 2.08861 
-1.80386 -1.08999 1.11433 
-1.84168 -1.19281 1.41820 
-1.61281 -1.45849 1.46136 
-1.56168 -1.54215 1.73990 
-1.16414 -1.82564 1.77988 
-1.03218 -1.76855 2.14783 
-0.70077 -1.72187 2.26552 
-0.62872 -1.40170 2.53122 
-0.32486 -1.20769 2.54454 
-0.36934 -0.84646 2.68015 
-0.01477 -0.59802 2.61188 
-0.15389 -0.30774 2.71347 
0.01894 -0.02983 2.66722 
-0.38948 0.26286 2.71428 
-0.42313 0.58866 2.59278 
-0.85408 0.85504 2.50239 
-0.76047 1.17787 2.33132 
-0.97714 1.46648 2.22122 
-0.92441 1.93035 1.96959 
-1.15233 2.24071 1.86086 
-1.35783 2.51411 1.76836 
-1.77778 2.43130 1.91593 
-1.37528 -1.28415 0.83782 
-1.52537 -1.37249 1.11886 
-1.24414 -1.60953 1.18203 
-1.27122 -1.72406 1.48604 
-0.88309 -1.86682 1.51542 
-0.79284 -1.88141 1.89394 
-0.44210 -1.77605 1.97926 
-0.37577 -1.56016 2.29430 
-0.10682 -1.31644 2.27729 
-0.05301 -0.93290 2.51112 
0.26058 -0.62954 2.33824 
0.26780 -0.30685 2.49463 
0.35796 0.06718 2.46265 
-0.05734 0.28974 2.64360 
-0.11348 0.64997 2.45935 
-0.49203 0.89585 2.42940 
-0.53390 1.33758 2.16591 
-0.73911 1.63200 2.06995 
-0.58280 1.94731 1.82933 
-0.82783 2.24215 1.75471 
-1.00159 2.50326 1.66118 
-1.30311 2.77479 1.61522 
-0.89462 -1.42538 0.65020 
-1.07548 -1.52028 0.89990 
-0.73641 -1.65331 0.89649 
-0.89466 -1.75346 1.18641 
-0.53225 -1.81922 1.24714 
-0.51347 -1.86368 1.61085 
-0.16426 -1.73188 1.66880 
-0.11349 -1.56220 1.96814 
0.14086 -1.26280 1.96564 
0.10027 -0.99624 2.23909 
0.36755 -0.41888 2.08532 
0.48056 -0.11721 2.19106 
0.46445 0.36836 2.19433 
0.18636 0.37047 2.48810 
-0.00310 0.85953 2.23792 
-0.29561 1.05932 2.24077 
-0.17541 1.34762 1.99643 
-0.39164 1.63986 1.91963 
-0.28781 2.00026 1.66955 
-0.53384 2.31732 1.59660 
-0.60874 2.60114 1.46809 
-0.94503 2.77849 1.49673 
-0.78702 3.01057 1.32151 
-0.62134 -1.31718 0.32475 
-0.22115 -1.47757 0.40335 
-0.52934 -1.55370 0.62418 
-0.18356 -1.64656 0.69937 
-0.38848 -1.73554 0.95551 
-0.03226 -1.73973 1.02615 
-0.17917 -1.78234 1.31901 
0.17376 -1.65206 1.42679 
0.19721 -1.49875 1.70108 
0.38329 -1.11278 1.99901 
0.20415 -0.75341 2.12577 
0.12655 -0.17902 2.00268 
0.31987 0.19677 1.95313 
0.11123 0.70205 2.19322 
0.24189 0.56695 2.30559 
0.36990 0.82786 2.11735 
0.10018 1.13052 2.01412 
0.18848 1.42788 1.80092 
-0.07338 1.68046 1.75287 
0.03859 2.00588 1.52986 
-0.20060 2.33369 1.45494 
-0.18693 2.61944 1.30466 
-0.46297 2.85793 1.28371 
-0.21633 3.03666 1.11442 
0.31377 -1.47518 0.22943 
0.08258 -1.56997 0.48604 
0.42550 -1.60920 0.56975 
0.17382 -1.67651 0.77889 
0.51742 -1.65498 0.91360 
0.30861 -1.67956 1.15158 
0.55821 -1.52659 1.49230 
0.51013 -1.36820 1.77384 
0.39411 -0.94239 2.21500 
0.14620 -0.55481 2.25709 
0.03737 -0.24004 2.34115 
0.00484 0.23338 2.10792 
0.08963 0.33117 2.38654 
0.35558 0.32896 2.48718 
0.53645 0.62050 2.28999 
0.46984 1.10835 1.93533 
0.55414 1.38516 1.75274 
0.29466 1.72927 1.59350 
0.40340 2.04213 1.39851 
0.16285 2.32265 1.33313 
0.27311 2.57175 1.18571 
0.05372 2.81919 1.13142 
0.84161 -1.43701 0.05355 
0.64712 -1.52721 0.32959 
0.98489 -1.55059 0.49157 
0.76196 -1.61067 0.71651 
1.00414 -1.58787 1.00849 
0.74158 -1.59042 1.22861 
0.79588 -1.44704 1.74353 
0.64158 -1.25835 2.03151 
0.59165 -1.01648 2.42726 
0.29552 -0.66511 2.50694 
0.24657 -0.37926 2.66016 
0.06705 -0.00955 2.50082 
0.34349 0.08556 2.67393 
0.59880 0.23688 2.65206 
0.78586 0.51904 2.45359 
0.68308 0.91346 2.09073 
0.80172 1.20872 1.88906 
0.64492 1.66420 1.57419 
0.74389 1.93961 1.40226 
0.60957 2.31259 1.22925 
0.61759 2.62795 1.06987 
0.37623 2.88617 1.01456 
1.40071 -1.41307 0.02453 
1.15490 -1.47490 0.22978 
1.46582 -1.50280 0.48176 
1.25248 -1.55720 0.76242 
1.30520 -1.56211 1.22667 
1.01746 -1.53641 1.47249 
1.05430 -1.43697 1.97464 
0.87379 -1.27280 2.25511 
0.84474 -1.06911 2.61984 
0.54441 -0.75540 2.72503 
0.62267 -0.50652 2.91286 
0.43544 -0.20018 2.82911 
0.73489 0.02169 2.86864 
0.91793 0.23958 2.76698 
1.11553 0.52795 2.56392 
0.94081 0.80157 2.24797 
1.06429 1.08599 2.03798 
0.91640 1.50482 1.69153 
1.02988 1.80657 1.49051 
0.95911 2.19427 1.25826 
0.99367 2.46567 1.11687 
0.93622 2.77106 0.95940 
1.74918 -1.44783 0.29819 
1.81564 -1.50168 0.70234 
1.56691 -1.54334 0.95123 
1.58012 -1.55501 1.44678 
1.29299 -1.52596 1.70178 
1.39086 -1.45345 2.12326 
1.17416 -1.30897 2.41266 
1.15329 -1.11155 2.74155 
0.89335 -0.82279 2.89932 
1.05692 -0.55614 3.05733 
0.86595 -0.26059 3.01344 
1.14117 0.03711 2.97059 
1.26698 0.28977 2.83279 
1.47842 0.60031 2.61202 
1.27825 0.80634 2.34734 
1.40503 1.08130 2.13042 
1.17840 1.37458 1.83152 
1.27372 1.67186 1.62146 
1.30127 2.06377 1.34293 
1.73856 2.09824 1.38173 
1.32789 2.36146 1.17787 
2.13518 -1.44756 0.51858 
2.09307 -1.50450 0.96876 
1.84133 -1.54217 1.19698 
1.96381 -1.54348 1.58213 
1.65686 -1.52895 1.84193 
1.76102 -1.44633 2.22348 
1.52042 -1.31982 2.51115 
1.48327 -1.11194 2.80214 
1.29922 -0.84279 2.99178 
1.49405 -0.53965 3.10206 
1.29298 -0.24921 3.09204 
1.54454 0.08719 3.00623 
1.61990 0.35800 2.85582 
1.83500 0.69013 2.61944 
1.65532 0.90118 2.37409 
1.79232 1.19446 2.13387 
1.51609 1.35858 1.91809 
1.60571 1.63971 1.70633 
1.59993 1.89476 1.50699 
1.88689 1.61271 1.77691 
2.52381 -1.46916 1.12204 
2.25134 -1.51427 1.34459 
2.35089 -1.49709 1.74483 
2.04241 -1.50285 1.95861 
2.17271 -1.39496 2.28714 
1.89908 -1.29104 2.55140 
1.80450 -1.08635 2.80058 
1.72404 -0.80803 3.00072 
1.92015 -0.48193 3.07612 
1.71008 -0.19862 3.09540 
1.94636 0.15396 2.98931 
1.97269 0.43492 2.84006 
2.18065 0.78046 2.58876 
2.02373 1.01341 2.35960 
2.14646 1.35180 2.07467 
1.90029 1.50156 1.88607 
1.64393 1.84726 1.52948 
1.28424 1.61530 1.66117 
2.62265 -1.45983 1.55665 
2.77313 -1.37976 1.96428 
2.47770 -1.41526 2.08479 
2.62166 -1.25753 2.36956 
2.29346 -1.20820 2.56555 
2.10823 -1.03709 2.77159 
2.13574 -0.75361 2.95030 
2.33468 -0.42907 3.00634 
2.12003 -0.13373 3.04831 
2.34458 0.21944 2.92573 
2.32526 0.51508 2.78863 
2.48844 0.90508 2.50646 
2.34880 1.15575 2.28626 
2.26435 1.59697 1.88163 
1.97140 1.75887 1.67523 
1.74178 2.04350 1.37325 
2.92096 -1.20254 2.33653 
2.87351 -0.91456 2.71247 
2.65831 -1.02901 2.63873 
2.42416 -0.94598 2.74822 
2.53910 -0.70988 2.87556 
2.75345 -0.42928 2.88030 
2.51592 -0.10527 2.95750 
2.69203 0.29065 2.82737 
2.65196 0.64013 2.68893 
2.67437 1.11170 2.33828 
2.51252 1.38167 2.10974 
2.59722 1.66642 1.86236 
2.22500 1.90453 1.58902 
2.30144 -0.75495 2.91971 
2.46567 -1.20993 2.57626 
2.76832 -0.85431 2.73384 
3.05456 -0.41647 2.76733 
2.86021 -0.05111 2.84014 
3.12877 0.09028 2.73653 
2.98989 0.47401 2.68220 
2.86176 0.88463 2.48428 
2.88095 1.34941 2.14976 
0.91878 0.39477 2.00000 
0.00000 0.00000 -1.50000 
CELLS 1023 3068
2 0 5
2 0 6
2 0 7
2 0 20
2 1 2
2 1 7
2 1 8
2 1 9
2 2 9
2 2 10
2 2 11
2 3 11
2 3 12
2 3 13
2 3 24
2 4 5
2 4 16
2 4 17
2 4 18
2 5 6
2 5 18
2 6 18
2 6 19
2 6 20
2 7 8
2 7 20
2 8 9
2 8 20
2 8 21
2 8 22
2 9 10
2 9 22
2 10 11
2 10 22
2 10 23
2 10 24
2 11 24
2 12 13
2 12 24
2 12 25
2 12 26
2 13 14
2 13 26
2 14 26
2 14 27
2 14 28
2 15 16
2 15 31
2 15 32
2 15 33
2 16 17
2 16 33
2 17 18
2 17 33
[...]
CELL_DATA 1023
SCALARS Strain double 
LOOKUP_TABLE default 
0.48406
-0.51087
0.11003
-0.07951
0.31360
0.21365
-0.26986
-0.35358
-0.21276
-0.44641
0.41350
0.15793
0.14902
0.13629
-0.41914
0.10758
0.43933
0.05156
-0.44234
0.04451
-0.43612
-0.46477
-0.15458
-0.11521
-0.27789
-0.34685
-0.06722
-0.08966
-0.26657
-0.15719
-0.18454
-0.35234
-0.01299
-0.10354
-0.02244
-0.43724
-0.41228
-0.46986
-0.39649
-0.16268
-0.35963
0.14728
-0.04840
-0.37330
-0.25946
0.21007
0.18333
0.28750
-0.30437
-0.29949
-0.48590
-0.17492
-0.45676
-0.19924
-0.27092
0.14407
-0.19554
-0.27602
-0.30193
-0.18338
-0.11678
-0.30198
-0.16807
0.06918
-0.25931
-0.37532
0.28484
-0.24181
-0.34654
-0.01090
-0.29100
-0.33605
0.00991
-0.25815
-0.25674
-0.11605
0.16396
-0.23834
-0.21536
-0.36295
-0.20522
-0.30499
-0.25378
0.17165
-0.34666
-0.14547
0.30578
-0.40424
-0.06962
-0.53270
0.45969
0.19524
-0.05901
-0.41391
-0.32643
-0.23072
-0.17136
0.16211
-0.38242
-0.06605
-0.06092
-0.26078
-0.33877
-0.30670
-0.22037
0.21023
-0.24069
-0.25740
-0.34387
-0.34165
0.23729
-0.28941
-0.26675
0.27403
-0.34617
-0.33233
0.25893
-0.28560
-0.25072
0.26424
-0.32431
-0.32935
0.20820
-0.27484
-0.27706
-0.03883
0.26279
-0.22322
-0.19709
-0.36494
-0.33484
-0.25253
0.13801
0.20617
-0.25885
-0.34905
-0.24960
-0.31158
0.01632
-0.50447
0.00747
0.13529
-0.07998
0.24546
-0.40775
-0.32362
-0.23793
-0.28177
0.05299
-0.36437
0.10867
0.02319
-0.24098
-0.42747
-0.44626
0.18346
-0.15389
-0.31630
-0.01457
-0.32372
-0.34176
0.05531
-0.31975
-0.29768
0.22612
-0.30524
-0.30512
0.18798
-0.31443
-0.30685
0.21733
-0.30374
-0.28859
0.15036
-0.34901
-0.32667
0.08766
0.23952
-0.16996
-0.22476
-0.33794
-0.36307
-0.26945
0.01488
0.09951
-0.24693
-0.33309
-0.26339
-0.28064
-0.45562
-0.31316
-0.05383
-0.30839
-0.38616
0.21950
-0.17628
0.51581
-0.39938
0.22216
-0.24244
-0.26164
0.19879
-0.30954
-0.38268
0.19173
-0.42230
-0.41529
-0.31253
-0.32934
-0.24596
0.11769
-0.39593
-0.32852
0.01028
-0.26512
-0.23555
0.09417
-0.31029
-0.32879
-0.01291
-0.24643
-0.30252
0.02722
-0.29198
-0.32866
0.04359
-0.30838
-0.33226
0.14107
-0.22491
-0.27355
0.01004
-0.38534
-0.35592
-0.09423
0.12333
-0.05660
-0.27587
-0.34596
-0.31963
-0.27187
-0.12310
-0.07307
-0.17664
-0.26759
-0.29925
-0.19692
0.13082
-0.23531
-0.32367
-0.26616
-0.29750
-0.35601
-0.23447
0.26442
0.12730
-0.29586
0.17565
-0.19564
-0.27063
-0.41523
-0.27205
0.02183
-0.00281
0.02251
-0.23763
-0.21811
-0.32766
-0.33386
-0.22767
-0.36495
-0.24314
-0.29579
-0.16777
-0.23579
-0.31384
-0.27658
-0.10245
-0.30384
-0.24345
-0.18087
-0.24696
-0.20505
-0.09781
-0.31225
-0.35465
-0.08150
-0.24120
-0.34282
0.01810
-0.10397
-0.22764
-0.09685
-0.39588
-0.33759
-0.22782
0.09216
-0.00488
-0.29372
-0.35191
-0.32113
-0.23124
-0.25270
-0.16954
-0.22562
-0.18497
-0.11807
-0.25749
-0.16818
-0.22906
-0.39409
0.02844
-0.47562
-0.48975
-0.30869
0.00520
-0.07425
-0.21592
-0.52379
0.46658
-0.35396
0.09148
-0.20658
-0.29337
-0.05778
-0.40941
-0.27241
-0.02686
-0.13324
-0.02021
-0.14701
-0.20992
-0.34235
-0.22379
-0.21518
-0.29044
-0.26656
-0.15550
-0.17054
-0.22081
-0.27172
-0.27848
-0.23783
-0.22319
-0.12949
-0.27670
-0.22404
-0.12340
-0.26214
-0.32491
-0.29639
-0.22105
-0.15533
-0.33896
-0.04982
0.00933
-0.17912
-0.18467
-0.34121
-0.30130
-0.31871
0.02927
-0.04976
-0.31460
-0.29062
-0.24568
-0.25683
-0.24538
-0.19697
-0.35440
0.04881
0.06070
-0.34597
-0.19977
-0.26946
-0.26066
-0.21842
-0.29138
-0.31716
-0.09449
0.19173
-0.25565
-0.38549
0.12088
0.31716
-0.33875
0.06991
-0.22673
-0.25363
0.04342
-0.34801
-0.31879
0.16831
-0.24403
-0.17081
-0.03575
-0.22120
-0.30363
-0.11157
-0.23651
-0.24796
-0.20377
-0.22474
-0.22928
-0.16205
-0.21554
-0.27329
-0.16292
-0.09519
-0.21001
-0.19664
-0.23351
-0.06136
-0.36280
-0.28268
-0.17538
-0.30781
0.15331
-0.22786
-0.16720
0.00945
-0.29916
-0.16562
-0.30120
-0.18302
-0.39972
-0.09522
-0.17817
-0.35152
-0.00297
0.03209
-0.36474
-0.25703
-0.25216
-0.20668
-0.16990
-0.14736
-0.24265
-0.21887
-0.25376
-0.32072
-0.12029
-0.34540
-0.31566
0.01497
-0.10289
-0.34886
-0.24562
0.27780
-0.35482
-0.12293
-0.22391
-0.27150
0.22542
-0.30972
-0.28737
0.17398
-0.27529
-0.25340
0.11329
-0.26621
-0.32852
0.10480
-0.27560
-0.24453
-0.09768
-0.30438
-0.29254
-0.15336
-0.13732
-0.21427
-0.17083
-0.23195
-0.28211
-0.42593
0.07540
0.30907
-0.42521
-0.32189
-0.25102
-0.30015
0.26299
-0.02831
-0.14908
-0.19095
-0.34114
-0.02817
-0.36328
0.16218
-0.45228
-0.29152
-0.22489
-0.21344
-0.26737
-0.20687
-0.07677
-0.25688
-0.29744
-0.15838
-0.15026
-0.09843
-0.27683
-0.18421
-0.21211
-0.28985
-0.18800
-0.35913
-0.27507
-0.23746
-0.02373
-0.09454
-0.30376
-0.33811
0.06597
-0.27962
0.21534
-0.12353
-0.21498
-0.22660
0.12499
-0.34387
-0.26832
0.25504
-0.32023
-0.30086
0.24764
-0.26531
-0.27365
0.18468
-0.33919
-0.34394
0.13490
-0.26367
-0.21730
0.05172
-0.36979
-0.38460
-0.18065
0.12101
0.04375
-0.30644
-0.15785
-0.27327
-0.44936
0.31780
0.18507
-0.50991
-0.14900
-0.09154
-0.28940
-0.11464
0.19411
-0.29417
-0.56205
-0.02380
-0.16241
0.06829
-0.30749
-0.35957
-0.16332
0.24237
-0.36584
-0.30202
-0.24721
-0.24278
-0.26602
-0.10709
-0.25744
-0.23807
-0.17984
-0.19196
-0.17469
-0.23544
-0.22114
-0.21391
-0.35371
-0.23303
-0.26920
-0.08078
-0.04488
-0.28495
-0.30305
0.08010
-0.30572
0.23894
-0.28365
0.11535
-0.29614
-0.28966
0.17475
-0.33183
-0.32617
0.13572
-0.26585
-0.26062
0.19018
-0.36490
-0.36563
0.00081
-0.21604
-0.10157
-0.10258
-0.34683
-0.34508
-0.29027
0.21596
0.24804
-0.38117
-0.07599
-0.11740
-0.40145
-0.17094
-0.31301
-0.37747
0.05752
0.04844
-0.18780
-0.43608
-0.38558
-0.06778
-0.43126
-0.27983
-0.08925
0.16388
-0.20858
-0.38413
0.21362
0.06235
-0.36987
-0.23311
-0.31570
-0.34393
-0.08109
0.18889
-0.33363
-0.31303
-0.23130
-0.28645
-0.24946
-0.03661
-0.28878
-0.24026
-0.38051
-0.08252
-0.32976
-0.14616
-0.26449
0.19719
-0.30098
-0.30096
0.12073
-0.27712
-0.24933
0.04027
-0.35531
-0.35761
-0.03320
-0.23841
-0.23994
-0.00888
-0.31471
-0.29811
-0.25461
-0.06593
0.07451
-0.25567
-0.24543
-0.27737
-0.30633
0.09206
-0.06701
-0.35463
-0.06725
-0.16350
-0.35529
-0.20235
-0.34401
-0.31397
-0.11840
-0.03172
-0.05873
-0.37940
-0.32049
0.05798
-0.40482
-0.32418
-0.11642
0.20392
-0.21516
-0.32161
0.09141
-0.11965
-0.30450
-0.23550
-0.24654
-0.35605
0.15098
0.12059
-0.34829
-0.25208
-0.32114
-0.32809
-0.13494
0.09997
-0.34494
-0.27362
-0.29311
-0.25967
-0.28449
0.16654
-0.17543
-0.26731
0.14871
-0.34770
-0.05905
-0.11112
-0.19764
-0.28657
-0.31587
-0.17289
-0.03611
-0.06546
-0.26595
-0.24138
-0.23917
-0.29550
-0.04672
0.02646
-0.28278
-0.25650
-0.25341
-0.26343
-0.05637
-0.16247
-0.31778
-0.10630
-0.08571
-0.33122
-0.24862
-0.35703
-0.20834
-0.26268
-0.16698
-0.07933
-0.27950
-0.25046
-0.05562
-0.39563
-0.31348
-0.16167
0.19378
-0.19146
-0.28254
-0.09397
-0.22037
-0.25370
-0.22311
-0.25104
-0.29641
0.12663
-0.06259
-0.29384
-0.25453
-0.24015
-0.35129
-0.08510
0.14011
-0.38435
-0.19605
-0.38407
-0.24828
-0.30326
0.10859
-0.28928
0.21475
-0.17379
-0.11103
-0.29135
-0.25487
-0.23069
-0.00609
-0.00828
-0.26326
-0.22976
-0.27669
-0.18595
-0.19324
-0.12255
-0.22012
-0.22133
-0.21106
-0.23288
-0.13953
-0.23168
-0.27968
-0.16132
-0.03824
-0.32900
-0.20969
-0.29907
-0.16650
-0.29081
-0.23795
-0.12055
-0.22249
-0.18463
-0.13130
-0.37181
-0.30782
-0.18394
0.17529
-0.12849
-0.27962
-0.21879
-0.25658
-0.26442
-0.15519
-0.25507
-0.22053
-0.04770
-0.21396
-0.19299
-0.26704
-0.24744
-0.30204
-0.03682
-0.01031
-0.31165
-0.17733
-0.11929
-0.31715
-0.23927
0.05734
-0.44751
0.28672
-0.08855
-0.31627
-0.08287
-0.18417
-0.19168
-0.12667
-0.19520
-0.25180
-0.15513
-0.22653
-0.19190
-0.19269
-0.20842
-0.21890
-0.16053
-0.22358
-0.28093
-0.23625
-0.24559
0.03506
-0.35551
-0.12875
-0.24631
-0.14733
-0.29323
-0.26462
-0.13846
-0.19250
-0.14253
-0.15967
-0.36238
-0.31577
-0.18465
0.15211
-0.07816
-0.27716
-0.25967
-0.27128
-0.28284
-0.08862
-0.19380
-0.22919
-0.22591
-0.25897
-0.21597
-0.18178
-0.27363
-0.17762
-0.35247
-0.41770
-0.25658
-0.44931
-0.34890
-0.03097
0.22734
-0.29062
-0.10839
-0.17442
-0.13790
-0.24929
-0.33470
-0.01978
-0.25609
-0.26094
-0.07680
-0.21130
-0.26685
-0.04661
-0.28733
-0.32790
-0.19353
-0.29575
0.11206
-0.38186
-0.01440
-0.22417
-0.16335
-0.29355
-0.26211
-0.15264
-0.19508
-0.12502
-0.16456
-0.36154
-0.31762
-0.18291
0.12115
-0.04964
-0.26959
-0.27500
-0.27534
-0.31579
0.02103
-0.08184
-0.27528
-0.31125
-0.29532
-0.33286
0.19316
0.11784
-0.31964
-0.10440
-0.26165
-0.46150
0.37928
-0.11633
-0.35795
-0.12402
-0.28812
0.10471
-0.22911
-0.38782
0.09297
-0.29001
-0.34872
-0.17396
-0.32754
0.13190
-0.34073
0.10186
-0.23046
-0.17489
-0.26498
-0.25772
-0.12535
-0.25147
-0.12782
-0.18567
-0.34709
-0.26297
-0.26387
0.14462
0.01656
-0.27251
-0.27660
-0.27825
-0.35024
0.24115
0.20918
-0.33968
-0.21352
-0.20007
-0.31884
-0.14732
-0.05147
-0.39021
0.09429
-0.04813
-0.49070
0.25808
-0.45701
0.06097
-0.41633
-0.43094
-0.36450
-0.29373
0.17478
-0.38849
-0.18179
-0.10040
-0.35629
-0.21001
-0.09512
-0.26449
-0.24393
-0.23779
-0.02197
-0.24259
0.17616
-0.24676
-0.23664
-0.22203
-0.34275
-0.26590
-0.22682
-0.25599
0.03915
0.02684
0.18648
-0.01431
0.04835
-0.15962
0.02616
-0.35859
-0.17663
-0.05300
0.14594
0.10000
