# vtk DataFile Version 3.0
Point representing Sub_cellular elem model
ASCII

DATASET UNSTRUCTURED_GRID
POINTS 364 float
-2.74308 -0.95406 1.50748 
-3.14759 0.12994 1.57485 
-2.94823 0.72492 1.76858 
-2.54860 0.33252 2.00024 
-2.46327 -0.75015 1.78085 
-2.10304 -1.16933 1.81567 
-2.53982 -0.94116 1.64316 
-2.98555 -0.45450 1.54172 
-2.91517 -0.12989 1.68271 
-2.94966 0.33342 1.72953 
-2.72217 0.62788 1.89593 
-2.34521 0.86386 2.10877 
-2.53444 0.90643 2.00621 
-2.76701 0.84667 1.89418 
-2.71865 1.41851 1.88994 
-1.97407 -1.84316 1.52070 
-2.37443 -1.40792 1.50266 
-2.28327 -1.23024 1.66441 
-2.30426 -0.97866 1.76447 
-2.41511 -0.60668 1.86920 
-2.71492 -0.53941 1.70331 
-2.61342 -0.17947 1.88421 
-2.70566 0.17974 1.87654 
-2.43985 0.25976 2.04879 
-2.47578 0.61173 2.03134 
-2.18048 0.77466 2.18710 
-2.50253 1.22504 2.00846 
-2.41784 1.61271 1.98422 
-2.46859 1.96969 1.88903 
-1.95111 2.36740 1.90549 
-1.10518 -1.85768 2.35047 
-1.46823 -1.98209 1.89304 
-1.71950 -1.80557 1.75509 
-2.02204 -1.53346 1.67688 
-2.02609 -1.11957 1.89805 
-2.08587 -0.81071 1.99933 
-2.09588 -0.45706 2.13579 
-2.35631 -0.29663 2.01760 
-2.06432 -0.20145 2.21779 
-2.32310 -0.04830 2.08954 
-2.02120 0.08437 2.26788 
-2.13760 0.39699 2.21581 
-1.86376 0.59940 2.33756 
-2.21570 1.08903 2.14967 
-2.18650 1.41749 2.10659 
-2.18203 1.96921 1.97096 
-1.86178 2.16512 1.98128 
-1.12312 -1.46923 2.61551 
-1.31667 -1.76325 2.17089 
-1.56573 -1.64901 1.97276 
-1.80030 -1.38058 1.93023 
-1.81026 -0.92178 2.15566 
-1.84830 -0.64967 2.23536 
-1.56625 -0.60099 2.42213 
-1.80807 -0.38309 2.33065 
-1.50727 -0.30349 2.49339 
-1.76648 -0.09864 2.38612 
-1.47276 0.03101 2.51673 
-1.72570 0.24299 2.40701 
-1.50407 0.48715 2.47547 
-1.91910 0.90806 2.28733 
-1.90044 1.22209 2.23823 
-2.01419 1.69316 2.08949 
-1.75531 1.95242 2.05065 
-1.53782 1.80887 2.12956 
-2.07522 2.06373 1.99698 
-1.45280 -1.15424 2.55591 
-1.58600 -1.20670 2.29175 
-1.31222 -1.45004 2.38843 
-1.51014 -1.39642 2.15773 
-1.64607 -1.14294 2.18309 
-1.34025 -1.18825 2.39871 
-1.46998 -0.91541 2.40670 
-1.13510 -0.86048 2.58195 
-1.26787 -0.54210 2.57404 
-0.95877 -0.42641 2.68627 
-1.20964 -0.18652 2.61663 
-0.92607 -0.02573 2.68830 
-1.21438 0.21421 2.59235 
-1.13120 0.52438 2.57507 
-1.59175 0.79903 2.40709 
-1.55079 1.13073 2.34356 
-1.72985 1.50694 2.20722 
-1.48904 1.75428 2.14810 
-1.70352 2.23186 1.93554 
-1.43131 2.43742 1.85350 
-2.08447 -0.93010 1.60670 
-1.84500 -1.01883 2.10769 
-1.89383 -1.17090 1.77966 
-1.70866 -1.28041 1.97735 
-1.36696 -1.65999 1.98941 
-1.23344 -1.49634 2.31776 
-0.94824 -1.50222 2.45614 
-1.01190 -1.17232 2.56217 
-0.68467 -1.04896 2.65314 
-0.80169 -0.72301 2.69029 
-0.45167 -0.53946 2.73222 
-0.65834 -0.26501 2.74278 
-0.42384 -0.03522 2.74453 
-0.77272 0.24039 2.69229 
-0.77402 0.56296 2.61919 
-1.23687 0.82026 2.48437 
-1.14117 1.13076 2.38658 
-1.34248 1.42318 2.27130 
-1.15533 1.78494 2.10326 
-1.42490 2.08703 2.00791 
-1.60494 2.26915 1.95141 
-1.35447 1.85609 2.09021 
-1.79912 -1.08300 1.11727 
-1.83794 -1.18783 1.42041 
-1.61192 -1.45627 1.46402 
-1.56134 -1.54188 1.74200 
-1.16600 -1.82740 1.78265 
-1.03358 -1.77069 2.15003 
-0.70152 -1.72407 2.26673 
-0.62855 -1.40280 2.53062 
-0.32468 -1.20864 2.54260 
-0.36861 -0.84645 2.67725 
-0.01413 -0.59831 2.60894 
-0.15214 -0.30758 2.71076 
0.02059 -0.02954 2.66568 
-0.38761 0.26285 2.71337 
-0.42280 0.58832 2.59318 
-0.85450 0.85427 2.50298 
-0.76019 1.17698 2.33259 
-0.97647 1.46540 2.22273 
-0.92486 1.93049 1.97108 
-1.15184 2.24075 1.86256 
-1.35752 2.51391 1.77069 
-1.77710 2.43032 1.91895 
-1.37257 -1.27928 0.84141 
-1.52321 -1.36888 1.12183 
-1.24389 -1.60849 1.18498 
-1.27165 -1.72465 1.48830 
-0.88454 -1.86849 1.51784 
-0.79433 -1.88393 1.89605 
-0.44296 -1.77818 1.98016 
-0.37597 -1.56184 2.29392 
-0.10658 -1.31763 2.27560 
-0.05305 -0.93376 2.50894 
0.26014 -0.62949 2.33618 
0.26867 -0.30674 2.49226 
0.35925 0.06764 2.46136 
-0.05533 0.29010 2.64293 
-0.11306 0.64987 2.45997 
-0.49212 0.89523 2.43054 
-0.53465 1.33765 2.16702 
-0.73966 1.63216 2.07115 
-0.58294 1.94677 1.83063 
-0.82724 2.24188 1.75610 
-1.00135 2.50293 1.66312 
-1.30272 2.77460 1.61771 
-0.89321 -1.42239 0.65416 
-1.07460 -1.51812 0.90337 
-0.73612 -1.65245 0.89942 
-0.89486 -1.75378 1.18885 
-0.53305 -1.81997 1.24889 
-0.51493 -1.86552 1.61227 
-0.16557 -1.73347 1.66916 
-0.11378 -1.56361 1.96758 
0.14066 -1.26323 1.96399 
0.10097 -0.99714 2.23607 
0.36823 -0.41881 2.08298 
0.48099 -0.11682 2.18961 
0.46513 0.36879 2.19301 
0.18815 0.37125 2.48725 
-0.00357 0.85965 2.23856 
-0.29644 1.05914 2.24194 
-0.17606 1.34677 1.99740 
-0.39198 1.63922 1.92067 
-0.28818 1.99965 1.67041 
-0.53354 2.31698 1.59769 
-0.60855 2.60080 1.46956 
-0.94472 2.77816 1.49884 
-0.78658 3.01017 1.32368 
-0.62031 -1.31312 0.32894 
-0.22093 -1.47499 0.40637 
-0.52876 -1.55180 0.62743 
-0.18317 -1.64547 0.70167 
-0.38828 -1.73532 0.95762 
-0.03209 -1.73953 1.02726 
-0.18026 -1.78310 1.31944 
0.17229 -1.65304 1.42657 
0.19652 -1.49963 1.70023 
0.38258 -1.11280 1.99672 
0.20603 -0.75186 2.12752 
0.12694 -0.17832 2.00097 
0.32024 0.19753 1.95200 
0.11223 0.70319 2.19262 
0.24269 0.56790 2.30490 
0.36999 0.82825 2.11645 
0.09958 1.12987 2.01451 
0.18750 1.42696 1.80103 
-0.07411 1.67961 1.75344 
0.03802 2.00498 1.53022 
-0.20051 2.33307 1.45565 
-0.18675 2.61886 1.30564 
-0.46262 2.85750 1.28527 
-0.21599 3.03620 1.11597 
0.31367 -1.47261 0.23136 
0.08274 -1.56814 0.48806 
0.42573 -1.60769 0.57086 
0.17428 -1.67562 0.78024 
0.51802 -1.65408 0.91428 
0.30879 -1.67931 1.15187 
0.55730 -1.52665 1.49156 
0.50955 -1.36818 1.77239 
0.39221 -0.94277 2.21365 
0.14494 -0.55482 2.25318 
0.03654 -0.23939 2.33918 
0.00545 0.23449 2.10672 
0.08996 0.33272 2.38545 
0.35612 0.32955 2.48656 
0.53661 0.62073 2.28895 
0.46949 1.10836 1.93419 
0.55353 1.38482 1.75151 
0.29372 1.72817 1.59338 
0.40277 2.04100 1.39835 
0.16277 2.32176 1.33343 
0.27319 2.57095 1.18617 
0.05397 2.81856 1.13240 
0.84145 -1.43430 0.05467 
0.64714 -1.52509 0.33064 
0.98514 -1.54877 0.49200 
0.76237 -1.60932 0.71698 
1.00501 -1.58670 1.00849 
0.74244 -1.58965 1.22870 
0.79530 -1.44663 1.74275 
0.64104 -1.25820 2.03046 
0.59056 -1.01556 2.42622 
0.29420 -0.66420 2.50510 
0.24569 -0.37834 2.65854 
0.06676 -0.00841 2.49930 
0.34287 0.08618 2.67277 
0.59871 0.23660 2.65156 
0.78546 0.51841 2.45279 
0.68293 0.91332 2.08939 
0.80135 1.20832 1.88758 
0.64437 1.66364 1.57301 
0.74364 1.93892 1.40127 
0.60933 2.31156 1.22910 
0.61772 2.62708 1.07012 
0.37643 2.88550 1.01538 
1.40069 -1.41042 0.02501 
1.15497 -1.47259 0.23030 
1.46626 -1.50085 0.48180 
1.25312 -1.55565 0.76238 
1.30591 -1.56102 1.22682 
1.01820 -1.53560 1.47255 
1.05328 -1.43638 1.97447 
0.87255 -1.27215 2.25472 
0.84315 -1.06854 2.61933 
0.54289 -0.75463 2.72395 
0.62114 -0.50609 2.91207 
0.43435 -0.19973 2.82799 
0.73397 0.02157 2.86789 
0.91769 0.23893 2.76656 
1.11498 0.52703 2.56324 
0.94017 0.80073 2.24690 
1.06351 1.08503 2.03677 
0.91606 1.50425 1.69009 
1.02981 1.80594 1.48927 
0.95918 2.19356 1.25758 
0.99405 2.46498 1.11661 
0.93628 2.77050 0.95963 
1.74961 -1.44563 0.29837 
1.81593 -1.50004 0.70255 
1.56741 -1.54197 0.95142 
1.58036 -1.55414 1.44731 
1.29314 -1.52522 1.70224 
1.38995 -1.45298 2.12346 
1.17278 -1.30860 2.41251 
1.15163 -1.11128 2.74127 
0.89159 -0.82244 2.89882 
1.05543 -0.55609 3.05696 
0.86474 -0.26060 3.01287 
1.14021 0.03688 2.97003 
1.26671 0.28921 2.83230 
1.47791 0.59963 2.61124 
1.27742 0.80521 2.34649 
1.40404 1.08002 2.12955 
1.17770 1.37358 1.83034 
1.27329 1.67089 1.62045 
1.30153 2.06297 1.34216 
1.73868 2.09718 1.38144 
1.32832 2.36084 1.17745 
2.13548 -1.44572 0.51908 
2.09307 -1.50324 0.96925 
1.84146 -1.54112 1.19746 
1.96394 -1.54284 1.58269 
1.65686 -1.52841 1.84249 
1.76023 -1.44608 2.22389 
1.51911 -1.31961 2.51129 
1.48169 -1.11184 2.80217 
1.29753 -0.84275 2.99159 
1.49260 -0.53977 3.10193 
1.29175 -0.24935 3.09170 
1.54351 0.08701 3.00575 
1.61952 0.35761 2.85527 
1.83445 0.68966 2.61866 
1.65457 0.90038 2.37317 
1.79151 1.19356 2.13302 
1.51519 1.35721 1.91736 
1.60498 1.63831 1.70580 
1.59982 1.89358 1.50652 
1.88619 1.61142 1.77652 
2.52382 -1.46818 1.12262 
2.25141 -1.51347 1.34514 
2.35091 -1.49667 1.74546 
2.04227 -1.50252 1.95922 
2.17196 -1.39484 2.28781 
1.89784 -1.29098 2.55181 
1.80296 -1.08637 2.80081 
1.72249 -0.80807 3.00081 
1.91875 -0.48200 3.07617 
1.70878 -0.19875 3.09520 
1.94526 0.15383 2.98893 
1.97218 0.43466 2.83953 
2.18010 0.78011 2.58811 
2.02304 1.01284 2.35881 
2.14577 1.35112 2.07400 
1.89959 1.50061 1.88540 
1.64277 1.84599 1.52881 
1.28345 1.61378 1.66046 
2.62268 -1.45930 1.55728 
2.77281 -1.37955 1.96518 
2.47731 -1.41509 2.08563 
2.62084 -1.25745 2.37050 
2.29226 -1.20817 2.56624 
2.10672 -1.03712 2.77203 
2.13427 -0.75363 2.95061 
2.33336 -0.42907 3.00657 
2.11873 -0.13380 3.04823 
2.34349 0.21931 2.92552 
2.32467 0.51487 2.78821 
2.48789 0.90481 2.50596 
2.34817 1.15530 2.28565 
2.26342 1.59640 1.88092 
1.97035 1.75802 1.67448 
1.74048 2.04237 1.37253 
2.92020 -1.20244 2.33769 
2.87213 -0.91444 2.71357 
2.65698 -1.02898 2.63961 
2.42271 -0.94601 2.74886 
2.53766 -0.70994 2.87611 
2.75222 -0.42943 2.88072 
2.51469 -0.10533 2.95760 
2.69099 0.29061 2.82730 
2.65133 0.63999 2.68862 
2.67369 1.11154 2.33779 
2.51172 1.38135 2.10912 
2.59624 1.66612 1.86173 
2.22385 1.90389 1.58830 
2.29995 -0.75484 2.92020 
2.46429 -1.21001 2.57702 
2.76700 -0.85443 2.73458 
3.05341 -0.41660 2.76794 
2.85899 -0.05125 2.84043 
3.12760 0.09016 2.73693 
2.98913 0.47394 2.68221 
2.86107 0.88458 2.48399 
2.88015 1.34935 2.14931 
0.91878 0.39477 2.00000 
0.00000 0.00000 -1.50000 
CELLS 1023 3068
2 0 5
2 0 6
2 0 7
2 0 20
2 1 2
2 1 7
2 1 8
2 1 9
2 2 9
2 2 10
2 2 11
2 3 11
2 3 12
2 3 13
2 3 24
2 4 5
2 4 16
2 4 17
2 4 18
2 5 6
2 5 18
2 6 18
2 6 19
2 6 20
2 7 8
2 7 20
2 8 9
2 8 20
2 8 21
2 8 22
2 9 10
2 9 22
2 10 11
2 10 22
2 10 23
2 10 24
2 11 24
2 12 13
2 12 24
2 12 25
2 12 26
2 13 14
2 13 26
2 14 26
2 14 27
2 14 28
2 15 16
2 15 31
2 15 32
2 15 33
2 16 17
2 16 33
2 17 18
2 17 33
[...]
CELL_DATA 1023
SCALARS Strain double 
LOOKUP_TABLE default 
0.48455
-0.51054
0.11270
-0.08113
0.31343
0.21479
-0.27016
-0.35346
-0.21310
-0.44595
0.41233
0.15840
0.14824
0.13720
-0.41955
0.10759
0.43938
0.05156
-0.44226
0.04421
-0.43621
-0.46480
-0.15497
-0.11528
-0.27832
-0.34713
-0.06611
-0.08736
-0.26758
-0.15778
-0.18476
-0.35264
-0.01394
-0.10226
-0.02311
-0.43678
-0.41140
-0.47006
-0.39693
-0.16245
-0.35959
0.14778
-0.04886
-0.37331
-0.25947
0.21052
0.18331
0.28656
-0.30387
-0.29970
-0.48600
-0.17467
-0.45688
-0.19915
-0.27069
0.14392
-0.19595
-0.27595
-0.30163
-0.18277
-0.11599
-0.30253
-0.16915
0.07019
-0.25811
-0.37510
0.28573
-0.24197
-0.34662
-0.01264
-0.29154
-0.33610
0.00804
-0.25681
-0.25702
-0.11795
0.16356
-0.23764
-0.21598
-0.36292
-0.20489
-0.30512
-0.25414
0.17043
-0.34702
-0.14472
0.30572
-0.40391
-0.07014
-0.53251
0.46009
0.19418
-0.05880
-0.41385
-0.32672
-0.23043
-0.17128
0.16097
-0.38180
-0.06658
-0.06140
-0.26045
-0.33902
-0.30676
-0.22008
0.21026
-0.24160
-0.25682
-0.34415
-0.34180
0.23809
-0.28929
-0.26681
0.27444
-0.34617
-0.33248
0.25965
-0.28555
-0.25019
0.26542
-0.32474
-0.32962
0.20923
-0.27381
-0.27671
-0.04096
0.26317
-0.22304
-0.19753
-0.36484
-0.33488
-0.25256
0.13633
0.20614
-0.25880
-0.34891
-0.24888
-0.31174
0.01526
-0.50445
0.00768
0.13418
-0.08030
0.24580
-0.40774
-0.32372
-0.23727
-0.28200
0.05191
-0.36406
0.10779
0.02259
-0.24053
-0.42785
-0.44638
0.18489
-0.15418
-0.31645
-0.01389
-0.32376
-0.34162
0.05597
-0.32008
-0.29772
0.22692
-0.30526
-0.30502
0.18855
-0.31458
-0.30677
0.21808
-0.30444
-0.28858
0.15156
-0.34873
-0.32643
0.08927
0.24067
-0.17035
-0.22452
-0.33779
-0.36322
-0.26955
0.01384
0.10051
-0.24714
-0.33306
-0.26314
-0.28059
-0.45544
-0.31411
-0.05425
-0.30818
-0.38674
0.21873
-0.17489
0.51638
-0.39909
0.22155
-0.24231
-0.26176
0.19711
-0.30913
-0.38268
0.19152
-0.42252
-0.41552
-0.31210
-0.33020
-0.24615
0.11944
-0.39556
-0.32805
0.01104
-0.26574
-0.23614
0.09546
-0.30990
-0.32825
-0.01313
-0.24687
-0.30280
0.02677
-0.29194
-0.32871
0.04315
-0.30863
-0.33247
0.14193
-0.22566
-0.27364
0.01092
-0.38565
-0.35681
-0.09283
0.12385
-0.05576
-0.27609
-0.34597
-0.31958
-0.27237
-0.12323
-0.07315
-0.17627
-0.26749
-0.29955
-0.19707
0.13007
-0.23506
-0.32379
-0.26653
-0.29833
-0.35550
-0.23408
0.26474
0.12466
-0.29503
0.17360
-0.19526
-0.27032
-0.41567
-0.27205
0.02087
-0.00081
0.02174
-0.23722
-0.21917
-0.32785
-0.33319
-0.22748
-0.36589
-0.24278
-0.29535
-0.16800
-0.23591
-0.31404
-0.27730
-0.10317
-0.30339
-0.24273
-0.18193
-0.24772
-0.20512
-0.09897
-0.31254
-0.35452
-0.08327
-0.24119
-0.34335
0.01799
-0.10466
-0.22763
-0.09719
-0.39624
-0.33849
-0.22733
0.09290
-0.00351
-0.29382
-0.35242
-0.32138
-0.23133
-0.25348
-0.17010
-0.22489
-0.18525
-0.11879
-0.25675
-0.16809
-0.22962
-0.39413
0.03094
-0.47551
-0.48982
-0.30915
0.00522
-0.07479
-0.21568
-0.52389
0.46656
-0.35382
0.08916
-0.20533
-0.29275
-0.05982
-0.40955
-0.27170
-0.02742
-0.13192
-0.02129
-0.14750
-0.21078
-0.34162
-0.22274
-0.21465
-0.28992
-0.26633
-0.15578
-0.17156
-0.22050
-0.27051
-0.27840
-0.23812
-0.22221
-0.13000
-0.27684
-0.22419
-0.12388
-0.26370
-0.32490
-0.29561
-0.22386
-0.15475
-0.33917
-0.05168
0.00875
-0.17912
-0.18542
-0.34136
-0.30253
-0.31848
0.02999
-0.04827
-0.31451
-0.29163
-0.24617
-0.25637
-0.24625
-0.19791
-0.35470
0.05065
0.06264
-0.34620
-0.20111
-0.26976
-0.25999
-0.21843
-0.29187
-0.31677
-0.09443
0.19234
-0.25555
-0.38562
0.12096
0.31804
-0.33863
0.06832
-0.22625
-0.25322
0.04163
-0.34804
-0.31842
0.16845
-0.24383
-0.17193
-0.03565
-0.22175
-0.30286
-0.10952
-0.23702
-0.24708
-0.20266
-0.22609
-0.23018
-0.16176
-0.21374
-0.27185
-0.16276
-0.09520
-0.21151
-0.19705
-0.23227
-0.06082
-0.36064
-0.28277
-0.17412
-0.30666
0.15428
-0.22717
-0.16875
0.00864
-0.29946
-0.16595
-0.30107
-0.18455
-0.39966
-0.09500
-0.17757
-0.35188
-0.00266
0.03342
-0.36526
-0.25715
-0.25187
-0.20643
-0.17057
-0.14819
-0.24216
-0.21942
-0.25391
-0.32074
-0.11964
-0.34546
-0.31592
0.01529
-0.10259
-0.34901
-0.24553
0.27803
-0.35450
-0.12321
-0.22465
-0.27163
0.22510
-0.30938
-0.28696
0.17458
-0.27545
-0.25464
0.11432
-0.26666
-0.32781
0.10732
-0.27668
-0.24442
-0.09547
-0.30547
-0.29295
-0.15273
-0.13569
-0.21264
-0.17089
-0.23474
-0.28286
-0.42651
0.08169
0.31046
-0.42387
-0.32093
-0.25377
-0.29921
0.26385
-0.02824
-0.14885
-0.19179
-0.34148
-0.02766
-0.36236
0.16126
-0.45265
-0.29124
-0.22500
-0.21149
-0.26827
-0.20748
-0.07574
-0.25694
-0.29766
-0.15818
-0.14983
-0.09820
-0.27712
-0.18467
-0.21224
-0.28982
-0.18766
-0.35939
-0.27518
-0.23757
-0.02354
-0.09422
-0.30388
-0.33814
0.06643
-0.27964
0.21556
-0.12432
-0.21400
-0.22662
0.12504
-0.34406
-0.26865
0.25478
-0.31983
-0.30053
0.24786
-0.26555
-0.27408
0.18576
-0.33903
-0.34366
0.13612
-0.26419
-0.21852
0.05455
-0.37067
-0.38425
-0.17919
0.12158
0.04338
-0.30581
-0.15489
-0.27428
-0.44841
0.31693
0.18528
-0.51690
-0.14906
-0.09294
-0.28927
-0.11376
0.19476
-0.29458
-0.56214
-0.02335
-0.16351
0.06863
-0.30863
-0.35912
-0.16458
0.24238
-0.36570
-0.30262
-0.24750
-0.24172
-0.26642
-0.10835
-0.25647
-0.23807
-0.17960
-0.19185
-0.17514
-0.23582
-0.22096
-0.21352
-0.35387
-0.23309
-0.26934
-0.08086
-0.04478
-0.28491
-0.30307
0.08028
-0.30571
0.23902
-0.28348
0.11578
-0.29626
-0.28990
0.17505
-0.33162
-0.32605
0.13601
-0.26602
-0.26086
0.19037
-0.36482
-0.36553
0.00115
-0.21673
-0.10456
-0.10111
-0.34806
-0.34472
-0.28967
0.21571
0.24813
-0.38037
-0.07653
-0.11689
-0.40056
-0.17019
-0.31111
-0.37484
0.05748
0.04763
-0.18750
-0.43466
-0.38526
-0.06860
-0.43052
-0.27925
-0.08940
0.16427
-0.20901
-0.38449
0.21350
0.06377
-0.36995
-0.23360
-0.31629
-0.34370
-0.08261
0.18865
-0.33342
-0.31341
-0.23114
-0.28576
-0.24995
-0.03817
-0.28832
-0.23970
-0.38041
-0.08261
-0.32990
-0.14649
-0.26428
0.19726
-0.30098
-0.30097
0.12107
-0.27721
-0.24942
0.04061
-0.35531
-0.35771
-0.03279
-0.23851
-0.24011
-0.00848
-0.31460
-0.29832
-0.25469
-0.06589
0.07238
-0.25589
-0.24613
-0.27720
-0.30615
0.09275
-0.06609
-0.35475
-0.06726
-0.16389
-0.35532
-0.20251
-0.34391
-0.31322
-0.11859
-0.03211
-0.05860
-0.37965
-0.32095
0.05785
-0.40494
-0.32412
-0.11637
0.20422
-0.21562
-0.32183
0.09274
-0.11898
-0.30472
-0.23574
-0.24694
-0.35607
0.15050
0.12163
-0.34828
-0.25238
-0.32139
-0.32790
-0.13619
0.09925
-0.34482
-0.27351
-0.29317
-0.25937
-0.28448
0.16564
-0.17523
-0.26717
0.14850
-0.34766
-0.05951
-0.11071
-0.19763
-0.28682
-0.31594
-0.17295
-0.03570
-0.06508
-0.26597
-0.24156
-0.23950
-0.29576
-0.04612
0.02568
-0.28318
-0.25657
-0.25292
-0.26293
-0.05664
-0.16271
-0.31776
-0.10638
-0.08554
-0.33110
-0.24893
-0.35723
-0.20812
-0.26293
-0.16719
-0.07891
-0.27954
-0.25078
-0.05528
-0.39579
-0.31373
-0.16168
0.19451
-0.19187
-0.28260
-0.09328
-0.22033
-0.25356
-0.22347
-0.25114
-0.29665
0.12725
-0.06195
-0.29404
-0.25457
-0.24029
-0.35132
-0.08586
0.14042
-0.38444
-0.19618
-0.38434
-0.24791
-0.30338
0.10821
-0.28927
0.21484
-0.17363
-0.11093
-0.29161
-0.25508
-0.23072
-0.00546
-0.00758
-0.26342
-0.22974
-0.27677
-0.18615
-0.19332
-0.12361
-0.22031
-0.22139
-0.21038
-0.23256
-0.14003
-0.23197
-0.27938
-0.16125
-0.03807
-0.32875
-0.20993
-0.29917
-0.16620
-0.29114
-0.23827
-0.12044
-0.22245
-0.18461
-0.13126
-0.37185
-0.30805
-0.18406
0.17606
-0.12861
-0.27977
-0.21885
-0.25656
-0.26438
-0.15540
-0.25537
-0.22023
-0.04725
-0.21416
-0.19244
-0.26730
-0.24745
-0.30217
-0.03675
-0.00991
-0.31191
-0.17733
-0.11951
-0.31713
-0.23927
0.05740
-0.44727
0.28656
-0.08839
-0.31640
-0.08285
-0.18399
-0.19153
-0.12676
-0.19501
-0.25184
-0.15533
-0.22660
-0.19272
-0.19294
-0.20820
-0.21825
-0.16041
-0.22405
-0.28118
-0.23607
-0.24580
0.03529
-0.35542
-0.12885
-0.24628
-0.14704
-0.29349
-0.26498
-0.13837
-0.19236
-0.14231
-0.15980
-0.36236
-0.31597
-0.18477
0.15283
-0.07818
-0.27735
-0.25966
-0.27122
-0.28282
-0.08889
-0.19407
-0.22896
-0.22632
-0.25906
-0.21563
-0.18201
-0.27382
-0.17697
-0.35221
-0.41756
-0.25701
-0.44905
-0.34874
-0.03143
0.22764
-0.29072
-0.10830
-0.17431
-0.13796
-0.24905
-0.33465
-0.02020
-0.25609
-0.26140
-0.07721
-0.21102
-0.26644
-0.04667
-0.28771
-0.32807
-0.19345
-0.29594
0.11224
-0.38186
-0.01427
-0.22407
-0.16324
-0.29380
-0.26244
-0.15254
-0.19498
-0.12473
-0.16457
-0.36152
-0.31782
-0.18293
0.12176
-0.04968
-0.26977
-0.27499
-0.27531
-0.31580
0.02078
-0.08214
-0.27513
-0.31145
-0.29542
-0.33283
0.19323
0.11784
-0.31956
-0.10476
-0.26171
-0.46135
0.37908
-0.11617
-0.35784
-0.12399
-0.28838
0.10435
-0.22875
-0.38772
0.09269
-0.29030
-0.34874
-0.17413
-0.32765
0.13206
-0.34064
0.10197
-0.23031
-0.17493
-0.26519
-0.25798
-0.12529
-0.25144
-0.12761
-0.18560
-0.34713
-0.26316
-0.26384
0.14518
0.01659
-0.27258
-0.27667
-0.27832
-0.35026
0.24120
0.20922
-0.33967
-0.21354
-0.20008
-0.31883
-0.14737
-0.05158
-0.39018
0.09432
-0.04808
-0.49057
0.25786
-0.45704
0.06085
-0.41646
-0.43089
-0.36453
-0.29361
0.17456
-0.38844
-0.18179
-0.10066
-0.35626
-0.20995
-0.09485
-0.26462
-0.24402
-0.23775
-0.02229
-0.24223
0.17634
-0.24707
-0.23661
-0.22200
-0.34274
-0.26597
-0.22687
-0.25600
0.03919
0.02692
0.18651
-0.01431
0.04851
-0.15968
0.02619
-0.35856
-0.17670
-0.05275
0.14609
0.10000
