# vtk DataFile Version 3.0
Point representing Sub_cellular elem model
ASCII

DATASET UNSTRUCTURED_GRID
POINTS 7450 float
-2.35890 -1.64963 1.87708 
-2.02263 -1.35091 2.05106 
-1.88000 -1.17741 1.94430 
-1.75131 -1.09425 2.04142 
-2.15282 -1.22100 2.38120 
-2.09511 -0.65513 2.10986 
-2.25501 -0.67635 2.16625 
-2.87817 -1.06249 2.35376 
-2.53657 -0.46027 2.02183 
-3.14702 -0.18467 2.20237 
-2.56982 -0.09558 1.93245 
-2.78799 0.19824 1.60955 
-2.05448 0.06754 1.63771 
-2.81570 0.54218 1.58020 
-2.26107 0.59237 1.87494 
-2.63721 1.27754 2.18716 
-2.10675 0.97497 2.14418 
-1.95404 1.46589 2.22074 
-1.52533 1.12137 2.10334 
-1.24478 1.54361 2.17329 
-1.71268 1.70507 2.67876 
-1.50202 2.07414 1.97159 
-1.70790 -1.31348 1.61943 
-1.56137 -1.06107 2.21811 
-2.00048 -1.25185 2.47961 
-1.55380 -1.62209 2.13492 
-1.63349 -0.85554 1.77313 
-1.72249 -1.18668 1.75433 
-1.72038 -0.75294 1.83058 
-1.90174 -0.59487 1.76149 
-2.09879 -0.38688 1.84957 
-1.78160 -0.07859 1.80336 
-2.22473 0.20111 1.60973 
-1.95720 -0.04176 2.07746 
-2.13082 0.34279 1.93672 
-1.73019 0.12682 1.67586 
-1.63624 0.30111 1.88003 
-1.27349 0.92726 2.12511 
-1.66529 0.51654 2.24979 
-1.76321 1.14783 1.99377 
-1.74961 0.67263 2.15409 
-1.26768 0.82476 1.90607 
-1.66041 0.89685 2.12884 
-1.30551 1.15805 2.00294 
-1.61487 1.34890 2.37931 
-1.17811 -1.24457 1.76909 
-1.20553 -1.33143 2.60703 
-1.09619 -1.31590 2.34261 
-1.27800 -1.23767 2.01109 
-1.38947 -1.00742 2.06754 
-1.60248 -0.96358 1.94797 
-1.70072 -0.35929 1.95867 
-1.47049 -0.33833 1.89164 
-1.20807 -0.38497 1.75862 
-1.52697 0.24478 1.79510 
-1.06624 -0.21624 1.98412 
-1.28657 0.15103 2.06911 
-1.11695 -0.20004 1.63322 
-1.16572 0.36966 2.17929 
-0.86459 0.59550 1.75710 
-1.09727 1.07731 2.02893 
-1.36983 0.86421 1.67311 
-1.20637 1.11559 1.96030 
-0.89116 0.78060 2.26079 
-1.06741 0.96830 1.77197 
-1.27488 0.79845 1.94490 
-1.27000 1.20675 1.84746 
-1.59882 -1.90619 1.48805 
-0.95654 -1.59641 1.87345 
-1.08925 -1.77765 2.10337 
-0.67733 -1.37859 2.45852 
-0.79583 -0.71488 2.11151 
-1.00442 -0.66469 2.10177 
-1.38178 -0.81492 2.07759 
-1.20684 -0.26380 2.17197 
-0.86282 -0.36964 2.00585 
-1.06734 -0.11240 1.96643 
-1.41553 -0.16015 1.79373 
-0.97175 -0.30822 1.82184 
-1.07690 -0.28400 2.08405 
-0.91253 0.09077 2.02775 
-0.97525 0.21228 1.94043 
-1.35085 0.32989 2.08218 
-1.53910 0.62091 1.76092 
-1.09668 0.57186 2.11973 
-0.87617 0.86641 2.24792 
-0.49896 0.83834 2.28791 
-0.71538 1.28108 1.98154 
-0.73245 0.86316 2.03446 
-1.11103 1.22433 1.71826 
-1.32638 1.66936 1.38845 
-0.93470 -2.27928 1.94852 
-0.41998 -1.80308 1.68422 
-0.69685 -1.67993 1.94604 
-0.66956 -1.33957 2.25581 
-0.51619 -1.16757 1.71696 
-1.22947 -0.93253 1.73139 
-0.93183 -0.77125 2.20626 
-0.52553 -0.58389 2.38648 
-0.97525 -0.53277 2.11778 
-0.78171 -0.04690 1.96672 
-1.32626 -0.01539 2.19952 
-1.19693 0.15434 1.91514 
-0.82037 0.03848 2.12104 
-1.23110 0.42110 2.13070 
-1.08682 0.53839 1.89496 
-1.05571 0.76366 1.92310 
-1.21963 0.44601 1.91703 
-0.82606 0.83574 1.89220 
-0.80403 0.85693 1.83529 
-0.73725 0.88096 1.83967 
-0.60480 1.17126 2.33035 
-0.90439 1.28983 1.81370 
-0.79874 1.49014 1.29879 
-1.02180 2.19127 1.50446 
-0.18955 -2.14179 1.99268 
0.09273 -1.37804 1.90591 
-0.43121 -1.13493 1.93041 
-0.71436 -0.81390 2.08299 
-1.00195 -1.03616 1.67771 
-0.67787 -1.34266 1.63579 
-0.49121 -1.24487 2.15093 
-0.35607 -0.98988 1.58674 
-0.74229 -0.54344 1.99104 
-0.57097 0.17267 2.10014 
-0.97713 0.35134 2.35330 
-1.20415 -0.04266 2.04230 
-0.83809 0.11037 2.10358 
-0.78184 0.43620 1.86021 
-0.85309 0.45627 2.32914 
-1.10282 0.84760 2.16527 
-0.70834 0.60373 2.02220 
-0.28768 0.80400 2.29422 
-0.73433 0.91050 2.57306 
-0.85085 1.30735 2.24317 
-0.76725 1.80951 2.28699 
-0.86334 2.11257 1.76939 
-0.50034 2.08887 1.65263 
-0.28259 -1.93963 2.42688 
-0.43424 -1.38255 2.04168 
-0.47041 -1.14288 1.78907 
-0.59543 -1.07628 2.44371 
-0.34158 -0.60226 1.86729 
-0.75256 -0.93566 1.59111 
-1.00829 -0.78075 1.71018 
-0.29379 -0.81339 1.82779 
-0.23749 -0.38263 2.36582 
-0.44468 0.14392 2.73323 
-0.95422 0.10543 2.51536 
-0.72504 0.05641 2.41446 
-0.25950 0.06595 2.44678 
-0.42792 -0.01878 1.93256 
-0.96655 0.33341 1.56096 
-0.35068 0.42924 1.81711 
0.01070 0.74466 2.24932 
-0.30214 1.34606 2.26160 
-0.79464 1.39741 2.16546 
-0.67430 1.63319 1.73701 
-0.43020 1.90906 1.96468 
-0.66981 2.35066 2.02706 
-0.55735 -2.00426 1.89866 
-0.08064 -1.42131 2.00232 
-0.15687 -1.01524 2.14914 
-0.22145 -1.16764 1.61782 
-0.41517 -1.36194 2.10689 
-0.76423 -0.77812 2.05610 
-0.47767 -0.42030 2.12985 
-0.31503 -0.19832 2.03261 
-0.56090 -0.22716 2.46419 
-0.64860 -0.34640 1.86781 
-0.64898 -0.02706 1.88333 
-0.64658 0.31938 1.95733 
-0.28558 0.08665 1.88476 
-0.49214 0.53615 1.70028 
0.06159 0.57752 1.51034 
-0.08744 1.22006 1.86885 
-0.75996 1.11232 2.17423 
-0.31146 1.40212 1.82480 
-0.15478 1.63500 1.87117 
-0.38476 1.99683 2.06238 
-0.32890 -2.14158 2.52104 
-0.32983 -1.44267 1.56038 
-0.20352 -1.18781 1.58002 
-0.32706 -0.73642 1.88010 
-0.26265 -0.82277 1.60215 
-0.17921 -1.08061 2.03759 
-0.64414 -0.95977 1.94009 
-0.37791 -0.88765 2.47413 
-0.15060 -0.54814 2.09232 
0.05886 -0.45729 1.77878 
-0.46370 -0.35418 1.63187 
-0.39277 -0.25391 1.81449 
-0.70549 -0.30162 2.30065 
-0.60767 -0.11791 1.88208 
-0.51084 0.18216 2.00487 
-0.20692 0.57133 2.23856 
0.06935 0.72085 1.89714 
-0.20279 0.86818 1.90287 
-0.25220 1.09808 2.07898 
-0.41396 1.12496 1.83720 
-0.60969 1.33147 2.06783 
-0.60612 1.55691 1.82419 
-0.59930 2.61283 2.12504 
0.14361 -2.30453 1.90955 
-0.07372 -1.79434 1.44437 
-0.04759 -1.12132 1.40029 
0.04292 -1.06300 1.39374 
-0.05419 -1.14467 1.94013 
-0.06456 -0.74493 1.89161 
-0.44672 -0.76635 2.24325 
-0.23760 -0.95741 1.82326 
-0.10358 -0.89612 1.73347 
0.35361 -0.61194 1.95802 
-0.18173 -0.34006 1.95097 
-0.18816 -0.38570 2.06540 
-0.22176 -0.00570 1.78748 
-0.32856 0.07380 1.54709 
0.08991 0.03322 1.96426 
0.50666 0.51565 2.04786 
0.24779 0.81249 1.76381 
0.02244 0.67071 2.00194 
0.22144 0.74746 2.35622 
-0.02436 0.93496 2.41767 
-0.11789 0.95377 1.95106 
-0.15639 1.32657 2.16902 
-0.54229 1.98048 2.38318 
0.18753 -2.20554 2.65704 
0.68244 -1.86366 1.63260 
0.20621 -1.27924 1.55477 
0.48124 -1.27884 1.67774 
-0.25748 -1.23118 1.61895 
-0.43433 -1.07083 2.34275 
0.10122 -0.90979 2.36815 
0.08208 -0.87690 1.97942 
0.26421 -0.56101 1.91056 
-0.12892 -0.86292 2.03696 
-0.06961 -0.36341 2.29181 
0.21828 -0.43218 2.08723 
-0.17504 -0.52918 1.78622 
0.04088 0.10088 2.07567 
-0.10679 0.56230 1.78650 
0.38868 0.33805 1.55671 
0.68674 1.00820 1.68343 
0.23886 0.98104 2.09020 
0.17901 0.97899 1.72307 
-0.26737 0.91446 1.78813 
-0.32977 1.00007 2.20231 
0.19472 1.41519 2.38592 
-0.24721 1.51484 2.56374 
0.75462 -2.21801 2.24478 
0.70198 -1.49980 1.45906 
0.51701 -1.39797 1.84217 
0.58760 -1.26279 2.26319 
-0.08111 -1.50281 2.16316 
-0.11473 -1.41301 1.97660 
0.25189 -1.07858 2.07752 
0.47661 -0.59040 2.17851 
-0.04916 -0.28602 2.12473 
0.07367 -0.45499 2.62544 
0.14180 0.04050 2.28979 
0.07565 -0.01691 1.95488 
0.06936 0.01605 2.07112 
0.27610 0.59510 1.82441 
0.53776 1.06777 1.75790 
0.44135 0.90126 2.07985 
0.32766 1.02813 2.08230 
0.08521 1.34624 1.53517 
-0.47776 1.55784 1.72732 
-0.33120 1.40127 2.34442 
0.03478 1.42599 2.16288 
0.16197 1.35432 2.55393 
0.00789 2.10418 2.65708 
0.70895 -2.27536 2.40728 
1.13703 -1.67052 2.00216 
1.08014 -1.46725 2.06006 
0.35216 -1.18620 2.48985 
-0.22035 -0.90605 2.19862 
0.13701 -0.71793 1.65606 
0.49620 -1.00948 1.87873 
0.49113 -0.49111 2.53975 
0.22422 -0.59999 2.20759 
0.56798 -0.08662 2.20420 
0.42975 -0.14159 1.69751 
0.41575 -0.19379 2.14544 
0.21635 -0.18322 1.94839 
0.59390 0.58933 2.12953 
0.32970 0.79096 2.14300 
0.47708 1.03798 1.70638 
0.35652 1.63285 1.88614 
0.20312 1.76035 1.51936 
-0.11869 1.82722 2.15611 
0.05259 1.28183 2.20110 
0.72863 1.40726 1.90400 
0.33557 2.36658 1.99178 
0.68560 -1.70726 2.59121 
0.64063 -1.29367 1.93894 
0.67321 -1.35247 1.74407 
0.75817 -1.36585 1.90363 
0.45202 -0.81839 1.76977 
-0.12058 -1.11820 1.67004 
0.18561 -0.38847 2.03236 
0.47921 -0.85144 2.20151 
0.42961 -0.32053 2.05288 
0.71388 -0.20984 1.65955 
0.55233 -0.03243 2.33727 
0.71087 -0.05808 2.18179 
0.19012 0.05369 1.93448 
0.66840 0.74253 1.83211 
0.30638 1.13976 1.93163 
0.08488 0.85651 2.00027 
0.39963 1.19150 2.28320 
0.79100 1.58235 1.80984 
0.29657 1.66536 1.78970 
0.33188 1.59549 1.91462 
0.65289 1.89724 2.39261 
0.19305 -1.71339 2.18180 
0.35604 -1.90216 1.91995 
1.11801 -1.59109 2.02730 
0.47639 -1.60581 1.90007 
0.32763 -1.45007 1.56291 
-0.08895 -0.94884 2.24083 
0.05788 -0.60292 1.97916 
0.26687 -0.79100 2.26333 
0.49178 -0.38145 2.25575 
0.47623 -0.49571 2.11078 
0.70313 -0.25037 1.94516 
0.64239 0.28910 1.90760 
0.18885 0.42268 1.83541 
0.66929 0.19002 1.65285 
0.42204 0.55485 1.74022 
0.29875 1.02801 2.01686 
0.21331 0.58996 1.80897 
0.46388 0.88621 1.98310 
0.43426 1.05203 1.95130 
0.37860 1.72496 2.41124 
0.56013 1.77674 2.34193 
0.56040 1.87944 1.83595 
0.36314 -1.83989 1.96290 
0.53071 -1.59919 1.95903 
0.92346 -1.69639 1.95716 
1.07715 -1.59676 1.55167 
0.83133 -1.19173 1.85493 
0.26165 -1.48411 2.20694 
0.48969 -0.88610 2.50895 
0.42503 -0.45244 2.28817 
0.56569 -0.40023 2.30165 
0.68545 -0.28309 2.24682 
0.94326 -0.28296 1.88299 
1.22454 -0.01994 2.09057 
0.76434 -0.14813 1.75262 
1.02819 0.20064 1.82900 
0.55514 0.44163 1.99642 
0.55811 0.13932 1.60496 
0.24367 0.49691 1.57577 
0.65636 0.69815 1.86603 
0.44362 0.46503 1.49040 
0.70319 1.08110 1.49297 
1.11309 1.03360 2.03380 
0.78224 1.32974 2.44274 
0.57608 1.74164 2.03877 
0.34319 1.93873 2.36746 
0.99613 -2.07485 2.10435 
1.14007 -1.52130 2.01601 
1.08140 -1.07212 1.74450 
1.19439 -1.12421 1.87379 
0.94883 -0.86000 1.58298 
1.11158 -1.05044 2.07434 
0.84406 -0.50744 2.03594 
0.76591 -0.93353 2.13607 
0.92141 -0.49514 2.56475 
1.11712 -0.08922 2.42994 
1.24860 -0.04988 2.19969 
0.95210 -0.17926 2.20543 
1.02401 0.32061 1.89294 
1.05786 0.34677 2.13010 
1.17130 0.95543 1.86724 
0.62704 0.70804 1.31773 
[...]
CELL_DATA 22233
SCALARS Strain double 
LOOKUP_TABLE default 
0.13885
0.43584
0.71048
0.79295
0.83242
0.90504
-0.01801
-0.04368
0.11555
-0.28081
-0.04167
0.01261
0.31520
-0.14379
-0.00607
0.30559
-0.48100
0.34203
0.41080
0.34279
0.07109
-0.45759
0.04331
-0.04442
0.08424
0.05803
-0.04058
0.20854
-0.16738
-0.00507
-0.22548
-0.00012
-0.06092
0.29628
-0.42991
0.33362
-0.32390
0.52201
-0.12184
0.77690
0.46020
0.21384
0.44008
0.72973
-0.30820
0.35758
0.13364
-0.32502
0.01138
0.60437
0.52023
0.24575
0.24826
0.49059
-0.24036
-0.17527
-0.25124
-0.22084
-0.19271
-0.37108
0.22554
0.04774
0.47183
-0.08020
0.38883
0.19835
0.57253
0.18173
0.53165
0.07138
0.11111
0.43845
0.09929
0.33950
-0.03340
0.14855
0.36058
-0.17216
0.21477
0.30606
0.98835
0.63734
0.11550
0.45878
1.12988
0.00243
-0.10148
-0.01680
0.17640
0.14643
-0.25094
0.10487
-0.20839
-0.21136
0.21066
-0.32740
-0.09087
0.20190
0.00206
0.11407
-0.01959
0.18492
0.19666
0.59974
0.73417
0.00424
0.54023
1.04639
0.53133
-0.16339
0.82731
0.57805
0.34669
0.67437
0.60251
0.33228
0.52086
0.84840
0.11426
-0.19547
0.11331
-0.11244
-0.13743
0.00596
0.07860
0.12449
0.03121
-0.01526
0.05479
0.45622
-0.25908
-0.10460
0.10735
0.54208
-0.00350
0.41779
0.66408
0.58611
-0.06620
0.25980
-0.19878
0.36759
0.23811
0.19972
-0.04805
-0.03995
0.39775
-0.00181
0.60362
0.50808
0.04944
0.63252
0.39153
-0.09635
0.52895
0.30885
-0.11661
0.86973
0.32120
0.16446
0.24993
1.08154
-0.13247
0.83782
0.06106
-0.39684
0.57264
-0.45988
0.28796
0.41262
0.31533
-0.39737
0.13581
0.30478
0.31848
-0.25925
0.28757
0.39126
0.01133
0.41939
0.37340
-0.11615
0.27330
0.65212
0.54307
0.29656
0.44038
0.62403
0.49943
0.17328
-0.06345
0.17686
0.48971
-0.16422
0.31557
0.33214
-0.26094
0.79930
-0.01035
0.38894
0.42532
0.38173
-0.05838
0.05059
0.29346
-0.13343
0.63136
0.60436
0.30223
0.28110
0.10505
-0.28180
0.13340
0.39328
-0.30940
0.12587
0.21918
-0.43171
0.41648
0.60108
0.16816
0.49130
-0.04584
0.50106
0.21873
-0.04335
-0.18932
0.11139
0.08818
-0.51315
0.51648
0.53887
0.37068
-0.47506
0.51097
0.06679
0.88836
0.57144
0.39408
0.65074
-0.00351
0.71024
0.56608
-0.01734
-0.28339
-0.04892
-0.22165
-0.04460
-0.01379
0.16363
0.16039
0.25119
0.03596
-0.01440
0.19634
0.45943
0.42249
0.13562
-0.06753
0.17287
0.37090
0.46276
0.51459
0.01908
0.20828
0.53528
0.26526
-0.37772
-0.18187
0.21869
0.19339
-0.04705
0.56328
0.19257
-0.24268
-0.09334
0.57622
0.42238
0.09089
0.59253
0.07340
0.80080
0.60314
0.67637
0.31212
0.71450
1.10401
-0.18715
0.52271
0.68714
0.72070
0.69205
0.22143
0.14837
0.65769
1.12692
0.12252
-0.36350
-0.01896
0.10578
0.47054
0.12854
-0.42612
0.00012
0.40763
0.70526
-0.05616
0.51380
0.56394
0.29834
0.86162
0.24111
0.48281
1.44898
0.03344
1.17159
0.77487
0.46223
-0.12409
0.71888
0.63250
0.19448
1.25632
0.37891
0.21468
0.30015
0.13373
0.05778
0.09015
0.36528
0.48519
0.55213
0.14435
0.62828
0.51581
0.41765
0.27304
0.04291
0.09504
-0.22559
-0.24273
0.36219
-0.17758
0.20158
0.38815
0.10608
0.02945
0.08325
0.45096
-0.21999
0.47175
0.01567
0.34602
-0.32238
-0.32405
-0.41008
0.14827
0.14330
0.00494
0.19090
0.39483
0.31115
0.46154
-0.00248
0.04346
0.31146
0.59918
0.94734
0.98699
-0.05248
0.00600
0.63812
-0.25254
0.09834
0.87492
0.80949
0.37674
0.23834
0.93687
0.31474
-0.03819
0.08043
-0.38797
0.65068
0.56502
0.42697
0.44017
0.43011
0.69297
0.01774
0.66637
0.08104
0.32002
-0.25561
0.28455
0.12414
0.32843
0.43957
0.56332
0.08128
0.09491
-0.23904
0.58599
0.38073
0.41426
-0.37650
0.65525
0.42433
0.15921
0.61061
0.39507
-0.23083
0.40148
0.57726
0.12615
0.18916
-0.38878
-0.17447
0.54361
0.49820
-0.02799
0.01536
-0.07846
0.40343
-0.07513
-0.02507
0.23380
0.40718
0.24851
0.77013
0.41612
0.51175
0.46812
0.20600
0.66177
-0.17609
-0.35209
0.38896
-0.48625
0.04309
-0.17453
0.05705
0.43517
-0.18031
1.08186
0.60341
0.35825
0.58899
-0.24444
-0.30499
0.30251
0.38741
0.17553
-0.43357
-0.08598
0.68529
0.41930
0.00670
-0.32907
0.13223
0.43697
0.75880
0.26789
0.54572
0.00596
0.45650
0.34527
-0.31782
0.44695
0.46598
-0.24292
-0.01907
0.76352
0.83780
-0.04714
0.01261
0.31714
-0.25669
0.68880
0.47690
-0.05743
0.40375
0.07127
0.44171
0.47743
0.64073
0.46762
0.40844
0.13525
-0.25360
0.26520
0.40765
-0.47973
-0.07754
0.09108
-0.18276
0.13639
0.58072
0.35499
-0.25024
0.12338
0.19664
-0.00619
0.45562
0.80637
0.72104
0.01134
0.28281
-0.03024
1.07410
0.46594
-0.23905
0.57455
1.22003
0.41641
-0.34434
-0.06375
0.30998
0.07138
0.10108
0.01161
0.03379
0.03037
0.01059
0.45486
-0.00243
0.26474
0.43263
0.21964
0.34491
0.24983
-0.17786
-0.05543
0.27899
0.25065
0.08962
0.21116
-0.13017
-0.02400
-0.10193
0.50391
-0.26371
0.24650
0.29644
0.07162
0.08602
0.18626
0.24552
0.17562
0.21988
0.25366
0.15822
0.66308
0.66092
0.88094
0.39707
0.02028
0.86145
0.76232
0.07690
-0.03939
0.10672
-0.03598
-0.06732
0.06745
-0.20023
-0.02158
0.83028
1.12362
0.66839
1.07706
1.15533
-0.07401
0.66176
0.33605
0.31864
0.39580
0.08935
0.34230
0.17096
0.68523
0.57274
0.51048
-0.18515
0.34458
0.04986
0.55813
0.80121
0.05940
0.77999
0.41870
0.59267
-0.10921
0.61577
-0.06719
-0.29343
0.68797
0.00213
-0.27054
-0.09715
0.05422
-0.04769
-0.01834
0.27682
0.63821
-0.14799
0.69567
0.67350
0.78995
0.34312
0.51833
0.24449
0.67088
-0.17816
0.46183
0.10994
-0.26868
0.43304
0.05888
-0.15188
-0.24181
-0.15358
-0.12393
-0.14013
-0.20398
-0.00759
-0.35051
-0.05242
0.02535
0.56725
-0.09248
-0.06234
0.33117
0.48660
0.58032
0.23989
0.80521
0.38813
-0.21154
-0.07669
0.38293
0.57027
-0.32205
0.62920
0.58306
0.54752
0.17941
0.08514
0.52530
0.61204
0.50625
0.57069
0.28893
0.03894
0.74616
-0.07232
-0.43485
0.37673
0.44430
0.46291
-0.03439
-0.00745
-0.13406
0.37529
0.12240
-0.07484
0.12353
0.40562
-0.23666
0.22811
0.37848
0.12863
-0.13181
0.22558
-0.11020
0.08557
0.17680
0.70405
0.12438
0.60355
-0.20582
0.90984
0.33626
-0.25553
-0.02984
-0.11433
0.53413
-0.15648
-0.10407
-0.10233
0.03502
-0.31495
-0.10081
-0.06895
0.60521
0.58982
-0.10803
0.15135
0.62029
0.31693
0.24329
-0.07891
-0.20457
-0.00826
-0.00692
0.07094
0.71086
0.21681
0.07921
0.14812
0.21307
0.69901
-0.09574
0.32402
0.50905
0.09726
0.21682
0.37133
-0.03916
-0.03506
0.24928
0.20825
0.00107
0.19630
0.42802
0.25010
0.02291
0.24157
0.35015
-0.08073
0.05688
0.22334
0.10765
-0.10834
0.38825
-0.19429
-0.42376
0.35976
0.24106
0.28337
0.09189
-0.15517
0.32782
-0.04242
0.48983
0.13910
0.16061
-0.31413
-0.15706
0.32878
0.66958
-0.06858
0.30529
0.39018
0.54890
0.97027
0.75681
0.30582
0.14757
0.30026
0.09093
-0.15625
0.30142
-0.20991
0.33499
0.44166
0.44256
-0.14858
0.29977
0.67711
0.53665
0.18982
0.22326
0.40754
-0.14177
0.51370
0.15653
0.24834
0.35735
0.39898
0.10789
0.60956
-0.21607
0.18792
0.35215
-0.12030
-0.66425
-0.00320
0.22304
0.47475
0.48881
-0.08013
-0.23768
0.33194
0.41133
0.24130
0.15369
-0.21802
0.22217
-0.00250
-0.00797
-0.49306
0.27872
0.15184
-0.16047
0.02168
0.30435
0.10325
0.08503
0.02559
0.34707
0.23276
0.30101
0.05463
0.18483
0.26177
0.67591
0.48692
-0.31294
-0.26835
0.72645
0.20638
0.10773
0.20641
0.31373
0.22276
0.15773
0.25817
0.29377
0.52044
0.33894
0.21619
0.51199
-0.16321
0.57792
0.15066
0.49350
-0.24391
0.20415
-0.04332
-0.19529
-0.10613
-0.22285
-0.28352
-0.02369
0.71597
0.65598
0.06630
0.78627
0.73077
0.60045
0.04832
0.20794
0.44921
0.71234
-0.19258
0.14235
-0.00089
0.10591
0.15435
0.11586
0.15077
0.10663
-0.28583
0.68681
0.84427
0.24142
0.55954
1.17125
0.63224
1.42759
1.48596
1.81230
0.44428
0.93211
-0.18468
0.44799
0.75050
0.12184
-0.12863
-0.25087
-0.23522
0.18644
-0.07237
0.47336
0.30345
0.35872
0.14640
0.43377
0.69107
-0.04311
0.03354
0.12180
0.67727
-0.27801
0.38221
-0.11265
-0.39346
0.17516
0.47745
0.03211
0.57808
0.54458
0.51373
0.41029
0.26890
0.18941
-0.02219
-0.24143
-0.10847
0.18589
0.47794
-0.26001
0.53181
-0.15100
-0.07747
0.59234
0.44287
0.69342
0.14489
-0.30812
-0.31973
0.67380
0.07328
0.43853
0.13238
0.22607
-0.20643
0.33994
0.24073
0.68751
0.37535
-0.33790
-0.18460
0.26279
0.38487
0.26594
0.25549
0.36559
0.29418
-0.01062
0.15935
0.84342
-0.07890
0.63115
0.04493
-0.17089
-0.12474
0.22104
0.61421
0.68433
-0.00660
-0.26719
0.01586
0.16832
0.57327
0.58938
-0.10037
0.49265
0.30037
0.54849
0.88644
0.33262
0.42828
0.34151
0.72308
0.02216
0.09517
1.09371
0.24740
0.33540
0.17346
0.76743
0.58571
0.38701
-0.20812
0.73644
0.68532
-0.21398
-0.27572
-0.30685
0.35063
-0.12710
0.06459
-0.03785
0.11114
-0.00911
-0.03198
-0.01219
0.21077
0.20573
0.81651
-0.09472
-0.08737
0.16223
0.47048
0.33495
0.30849
-0.41305
-0.43846
0.15579
0.46885
-0.20234
-0.38430
0.03167
-0.12985
0.41231
-0.41620
-0.12582
-0.37413
-0.21142
-0.24513
-0.03843
-0.06037
-0.31939
-0.38025
0.03796
-0.25352
-0.10685
0.14655
0.10364
-0.14535
0.26822
0.60943
0.43257
0.04133
-0.15186
0.20488
-0.24337
0.58285
0.60774
-0.11864
0.22703
0.28958
0.21653
0.74214
0.77724
0.48204
0.40039
-0.09425
0.44420
0.48074
-0.11364
0.10324
0.15854
0.12471
-0.23739
0.08594
-0.22747
-0.19340
-0.28116
0.79009
-0.03941
0.53951
0.20508
0.66285
0.61837
1.04478
0.63669
-0.36719
0.81617
0.78753
0.22730
-0.31695
0.11617
-0.00266
0.69383
-0.23520
-0.16852
0.47798
-0.04716
0.27573
0.30064
-0.10432
0.48567
0.45012
0.59066
0.07575
0.05283
0.69041
0.55154
0.97576
-0.11179
0.46134
0.57991
0.02267
-0.46566
0.03104
0.10741
-0.35984
-0.27187
-0.13367
0.73377
0.10812
0.13132
0.79901
0.45203
0.04195
0.10598
0.00228
-0.01564
0.04949
0.08529
0.82812
0.78058
-0.10098
-0.28301
-0.35798
0.38742
0.24694
0.17052
0.28475
-0.04023
0.31004
0.53429
0.43709
0.41508
-0.05944
-0.20666
0.07079
0.48123
0.26617
-0.35303
0.62376
0.46864
0.59772
-0.26859
0.44542
0.23155
0.56059
0.46744
0.09401
0.83681
0.79132
0.89352
0.51149
-0.16203
0.99570
1.39989
-0.00776
0.11504
-0.28261
0.00602
0.33713
0.50951
0.09649
0.15442
0.02074
0.17452
0.20457
0.56638
0.78945
1.05834
0.80090
0.86169
0.73087
-0.16412
0.65746
0.56239
0.76360
0.86017
0.14122
0.63818
0.61210
0.02939
0.69645
0.20354
0.59396
0.22853
0.11112
-0.41531
0.39360
-0.02670
0.49347
0.83095
0.01174
0.25240
0.47750
-0.07540
0.24352
0.39231
0.14108
0.55571
0.53767
0.23964
0.50275
1.03782
0.92013
0.18253
0.02784
0.09759
0.85916
0.65873
0.26963
0.15707
0.20872
0.21557
0.19951
0.25035
0.09098
0.18218
0.29700
0.40950
0.41401
0.06118
-0.41119
0.35827
-0.14822
-0.36001
0.21782
1.03338
0.04680
0.84468
-0.11234
0.70848
0.83153
0.91531
-0.37197
0.41719
-0.25749
0.34184
0.39737
0.31549
0.61881
0.36743
-0.00380
0.74928
0.69320
0.55648
0.27006
0.45408
0.86835
0.29496
0.64782
0.31122
0.48053
-0.13780
0.26776
-0.22584
0.03598
0.57057
-0.20966
0.02013
-0.04138
-0.34524
-0.25707
-0.11680
0.06191
0.15773
0.46444
-0.30864
0.45936
-0.01508
0.13210
-0.28080
-0.33651
-0.43036
0.75562
0.46997
0.88995
0.10146
-0.19592
0.14278
0.55826
0.08674
1.26975
0.43090
-0.38623
-0.35571
-0.18284
-0.03944
-0.18514
0.04875
0.16984
-0.45213
-0.10214
0.02519
0.18070
-0.03742
0.10288
0.17579
0.05608
0.01749
0.44032
0.07316
0.01261
-0.01384
0.47578
-0.01802
0.48146
0.82733
0.71325
0.62034
0.76831
0.24163
-0.11041
0.42700
0.00482
0.22288
-0.48226
0.27502
0.53184
0.51226
0.31839
0.16842
0.38941
0.73401
0.40187
-0.00272
-0.25622
-0.42110
0.29927
-0.04354
-0.28500
0.35399
-0.16186
-0.43246
0.33675
-0.17855
-0.15848
-0.13845
-0.14030
-0.15585
-0.10021
-0.06433
0.15383
0.07897
-0.06381
-0.03270
-0.06923
0.39335
0.10354
0.16349
0.37413
0.21720
0.50590
0.35960
0.27595
0.26509
-0.06227
-0.46510
0.19750
-0.28707
-0.22761
-0.27831
-0.33450
-0.19947
0.42776
0.65528
-0.02189
-0.04379
0.60138
0.38735
0.06473
0.29061
0.52660
0.37202
0.04940
0.41978
0.57140
0.08530
0.09954
0.30521
0.51063
0.22996
-0.16933
0.05770
0.08423
-0.14978
0.74167
0.56157
0.12749
-0.31829
-0.17002
-0.38865
0.51293
0.09101
0.57926
0.61104
-0.03951
0.62122
-0.07953
-0.22890
-0.17751
-0.05570
-0.02835
-0.26631
0.23995
-0.04098
0.56946
0.62018
0.45743
0.01311
0.17626
0.30111
-0.17222
0.68410
0.90233
0.59389
-0.02766
0.45941
0.26073
0.25757
0.16104
0.26092
-0.22872
0.28375
0.58620
0.68881
-0.16353
0.70129
0.33702
0.17984
0.38443
0.36152
0.11843
0.35632
0.53370
0.02708
0.09503
0.73686
0.50807
-0.02858
0.73881
0.04350
0.65037
0.02918
-0.02824
0.41891
0.44178
-0.04900
0.29737
0.56790
0.36420
-0.20925
-0.03811
0.28776
0.92159
0.40444
0.30725
0.38804
-0.17179
0.34874
-0.33824
-0.23830
0.05836
-0.04829
-0.23486
0.30601
0.70790
-0.18774
0.45760
-0.01487
-0.31425
0.05467
-0.10420
0.34885
-0.01498
0.35471
0.34726
-0.22488
0.43002
-0.18021
0.12828
0.32661
0.09383
0.09575
0.11204
0.38404
0.21454
0.20579
0.36284
0.08967
-0.49157
0.03836
0.13974
0.19793
0.13588
0.74272
0.10671
-0.10765
-0.20453
0.15531
0.28852
0.23357
-0.24966
0.14534
0.08013
-0.13621
0.04392
0.33292
0.64029
0.25280
-0.15674
0.67241
0.50703
0.42169
-0.16849
0.22816
0.35328
0.53008
0.15318
1.12202
1.69686
0.19964
0.62179
0.66282
0.11772
0.00140
0.53565
0.55095
0.51504
0.21732
0.14619
-0.18777
0.12186
0.38709
0.08776
-0.01134
0.44625
0.73359
-0.46682
0.23028
0.19115
-0.35280
0.22285
-0.13135
0.18964
0.05095
-0.14648
-0.16714
0.47105
-0.00169
-0.18378
0.09008
-0.37688
0.26101
-0.00931
0.48450
0.79986
0.39360
0.75054
0.50635
0.72961
-0.29448
0.13777
0.38136
-0.21318
-0.17214
0.42988
-0.03999
0.42475
0.60813
-0.07809
0.46687
0.43821
-0.16049
0.27294
-0.09289
0.43819
0.40485
-0.44695
0.08299
0.45266
0.16621
0.46953
0.16400
0.25579
0.28829
0.49591
0.20894
0.29659
0.26591
0.40500
0.49370
0.28199
0.27449
0.49482
0.42108
-0.23809
0.06804
0.11484
-0.09747
-0.01101
0.01725
0.67291
0.42161
-0.01728
0.28786
0.68720
0.65824
-0.18976
0.37358
0.63800
0.86951
0.58838
0.46113
0.29905
0.11563
0.41879
0.15549
0.34839
1.41316
0.92585
-0.27727
0.78429
0.26791
-0.14496
0.43808
0.18744
0.11311
0.49995
0.41115
0.29928
-0.07971
0.91782
0.10452
0.39220
0.87229
0.20525
0.11008
-0.08921
-0.17635
0.84376
0.35932
0.09065
0.03306
0.13659
0.15489
0.18951
0.18420
0.16087
0.76848
0.66896
0.38698
-0.04489
1.04848
-0.31943
0.37689
-0.03316
0.27196
0.02845
0.16316
0.12427
0.05806
0.16749
-0.30226
0.31036
-0.14992
-0.05218
-0.23980
-0.14328
0.02709
0.00100
-0.31278
0.54120
0.94908
0.01813
-0.06597
0.15372
0.41887
0.89006
0.26587
0.48416
0.56607
0.59516
0.27546
0.41569
-0.10554
0.49014
0.43144
0.45690
0.56004
-0.12045
0.00477
-0.10086
0.39725
0.28805
-0.03757
0.72173
-0.34646
-0.20270
-0.18016
-0.34959
0.28949
0.44946
-0.27785
-0.29545
-0.26842
-0.19734
-0.41892
0.13581
-0.05247
0.05150
-0.06030
0.19969
0.30555
-0.20319
-0.27756
-0.43180
-0.44467
0.05831
-0.00579
-0.01780
0.06904
0.10522
0.69164
0.69060
0.50062
-0.28549
0.48521
-0.00963
-0.04382
0.89103
0.54111
-0.21387
0.08263
0.24584
-0.32982
0.05383
0.75747
-0.11931
0.19859
0.37656
0.32155
0.19153
0.14862
0.47912
0.93859
0.89505
0.65019
-0.12322
0.52997
0.46595
0.19982
0.16604
0.21968
0.21805
0.22337
0.42138
0.60163
-0.31429
0.12232
0.28908
0.50144
1.28499
0.23229
0.22864
-0.15539
0.87836
0.72493
0.36477
0.35772
0.86588
0.17717
0.55395
0.86870
0.82018
0.65551
0.34780
0.64562
0.73431
0.38126
0.74400
-0.11052
0.44009
0.54375
0.29346
0.17560
0.18577
0.70870
0.82043
0.89048
0.41270
0.84075
1.30913
0.32627
0.71969
-0.09742
0.42216
0.51263
0.11057
0.05982
0.13854
-0.15948
0.06712
-0.10083
0.02954
0.03342
-0.09477
0.17165
-0.22065
0.50875
0.04293
-0.06745
0.47704
0.19145
0.02810
0.29967
0.15129
0.49591
0.65826
-0.12731
0.52868
-0.09181
0.35550
-0.15167
0.47794
0.00472
0.60879
0.22965
0.20097
0.44354
-0.42512
0.25606
-0.05457
0.24838
0.63450
-0.23270
-0.30466
0.08327
0.23750
0.44138
-0.25762
-0.18678
0.67514
1.04033
0.55169
0.66381
1.06822
-0.17233
0.04681
-0.11527
0.14375
0.30793
-0.21783
0.29365
0.42986
0.51384
0.46220
0.49620
0.38458
-0.36233
0.26024
0.32753
0.27347
-0.62536
0.41658
0.35922
-0.16620
-0.03489
0.50517
0.19714
-0.31036
0.27929
0.05671
0.50800
0.32740
-0.27454
0.43938
-0.01602
0.09219
0.07481
-0.08337
0.00527
0.38668
0.35281
0.83582
0.36519
-0.16950
0.32722
0.44936
0.14123
0.48958
0.75463
0.62429
-0.10153
0.65504
0.57189
0.60675
0.61137
0.32835
0.66177
0.44824
0.04858
-0.26964
-0.27269
-0.00484
-0.01080
-0.03622
0.07056
-0.13349
-0.04294
0.08896
0.37371
0.50096
0.06337
0.23916
0.37287
0.26177
0.66954
0.57184
0.76009
0.38052
0.66526
0.56552
0.65468
0.72980
-0.40674
0.34250
-0.22601
0.56505
0.09497
-0.39644
0.38611
0.06965
0.32281
0.36731
0.14993
0.53658
0.90661
0.55169
0.10519
1.44058
-0.12825
0.32814
0.39533
0.52006
0.19089
0.52507
0.34992
0.73843
0.21125
0.01300
-0.03020
-0.21717
0.22070
-0.17318
-0.20862
-0.08228
-0.20168
-0.18591
0.01222
0.03202
0.12124
-0.06099
-0.04422
-0.32795
-0.21490
-0.24653
-0.06189
0.66440
0.45249
0.11180
0.47846
0.50678
0.42390
0.42665
0.45830
0.05571
0.39249
-0.23838
0.08455
0.43791
-0.40320
-0.48173
0.68807
0.53235
0.67573
0.35998
0.34699
0.30658
0.82096
0.75975
0.32976
0.49497
0.19039
0.30630
-0.20255
-0.07046
0.31438
0.52356
0.69574
-0.15379
0.55085
0.58112
0.71147
0.48506
-0.01894
0.56946
-0.01508
0.33805
0.36860
-0.37559
0.17833
-0.30376
-0.13366
0.70569
-0.05760
0.12315
0.47664
0.22405
0.27686
0.40659
-0.08373
0.46798
0.14442
0.14802
-0.43422
0.41314
-0.15737
-0.29763
-0.25463
0.41604
0.52630
0.67955
0.42798
0.81167
-0.34341
0.61925
-0.10034
0.59308
0.36753
0.22801
0.13985
0.39233
0.66580
0.20681
0.57159
0.08624
-0.14167
0.31854
0.28127
0.49059
0.05375
-0.11822
-0.08510
0.44522
-0.11334
0.44708
0.16000
-0.09193
0.24125
0.37052
0.15950
0.29448
-0.07143
-0.22700
0.16114
-0.34656
0.29558
0.73264
0.32770
-0.49279
0.43822
-0.21259
-0.07846
0.32169
0.60785
0.14631
0.43728
0.49974
0.46425
0.21973
0.03761
0.38222
0.21822
0.41070
0.25353
-0.06483
-0.38606
0.24283
0.00625
-0.07154
-0.26280
0.30389
0.53192
0.29651
0.08989
-0.01747
0.45615
0.41634
-0.13258
0.39604
0.49835
-0.14836
-0.07747
0.28818
-0.33646
-0.06507
0.21523
0.54670
-0.43281
-0.28581
0.00943
0.47776
0.03638
0.64379
0.45397
0.14378
0.74732
0.60122
0.13439
0.70310
-0.12492
-0.12669
0.07938
0.43534
-0.14507
-0.07540
0.14556
-0.23029
-0.10594
0.20202
-0.18355
0.02889
0.26927
0.21069
0.36745
0.45522
-0.11707
0.85954
0.25528
-0.10869
0.92320
0.61509
1.21480
0.06926
0.12063
0.24449
0.00932
0.22480
-0.16785
0.21794
0.19438
-0.08110
0.10194
0.30781
-0.17965
-0.03004
-0.02558
-0.10176
-0.20349
0.55639
0.17063
0.62510
0.07588
0.54382
-0.13054
0.22976
-0.14539
0.18578
0.21366
-0.00884
0.40933
0.80324
-0.63485
-0.22301
0.64014
0.07715
0.30753
0.87655
0.64596
0.12062
0.31189
0.87671
0.72172
0.45972
0.22504
0.57605
0.36328
-0.29785
0.70974
-0.02404
-0.00149
0.32910
0.21540
0.17655
0.05274
0.33508
-0.08991
0.11216
0.03544
-0.25037
-0.01269
0.42266
-0.12654
-0.07809
-0.33403
0.39643
0.48668
0.26536
0.16958
0.35940
0.37738
-0.15226
-0.13771
0.00360
-0.10614
-0.38385
0.31150
-0.49487
0.33326
0.10654
0.40512
0.31921
-0.15849
0.49876
-0.22332
0.31327
0.38076
-0.04582
0.54680
0.53438
0.03584
0.41738
0.24090
0.69652
-0.05234
0.15944
0.46086
0.40337
0.40868
0.34417
0.51795
-0.03688
0.20141
0.62383
0.10762
-0.14494
0.52296
0.21560
-0.22988
0.00196
-0.01337
0.03056
0.10198
-0.03386
0.19697
0.04244
-0.15775
0.51472
0.01459
0.21021
0.12573
0.40214
0.34819
0.25480
0.05911
0.40926
0.40998
0.37572
0.32558
0.02296
0.18153
-0.20205
0.34295
0.17094
0.06191
-0.12714
0.21100
0.66197
0.25789
0.24467
0.68195
-0.22186
-0.23948
0.32626
0.31395
-0.02348
-0.06287
0.07267
0.30524
-0.01625
-0.02339
0.02072
0.11027
-0.41058
-0.14975
0.28916
0.07027
0.33224
-0.18470
-0.65998
0.29884
0.38143
0.28532
0.37356
0.34952
-0.28045
0.44709
0.54791
0.68768
0.65897
0.05022
-0.74885
-0.16188
0.42217
0.50512
0.05353
-0.45343
0.93316
0.33941
0.73112
0.03749
0.16475
0.92052
0.61777
0.64856
0.38066
0.71739
0.68443
0.13074
0.61128
-0.07862
-0.09541
-0.30743
-0.31061
-0.22365
-0.03385
-0.12852
0.01784
-0.16942
-0.03929
-0.35169
-0.06667
-0.04599
0.38860
0.29120
0.38775
0.04279
-0.23745
0.48689
0.16511
-0.22397
0.00195
-0.24453
0.38569
0.59010
0.23201
0.65057
0.57634
0.00938
0.72707
-0.25898
0.31550
0.38837
0.04131
-0.10126
-0.27787
-0.07748
-0.10883
0.39393
0.37877
-0.49641
0.06832
-0.30722
0.56582
0.70895
0.66206
1.03945
0.20760
0.20291
0.00345
-0.44673
-0.02110
-0.10210
-0.16302
-0.19546
-0.26055
-0.03486
-0.27416
0.20795
0.11288
0.77486
0.01906
0.34740
0.82031
0.20071
0.54972
0.48000
0.25796
0.58085
0.44356
0.47950
0.59139
0.31158
0.07830
0.41549
-0.36582
-0.18816
0.14254
0.65226
-0.08713
0.11747
0.24880
0.58518
0.10060
-0.05904
0.93461
0.41547
0.18136
0.55485
0.83870
1.05332