# vtk DataFile Version 3.0
Point representing Sub_cellular elem model
ASCII

DATASET UNSTRUCTURED_GRID
POINTS 364 float
-1.24714 -0.21258 2.03624 
-1.50018 -0.42099 1.95545 
-1.63545 -0.18518 1.93704 
-1.66837 0.26002 1.95085 
-1.46202 -0.65042 1.85976 
-1.49051 -0.37975 1.91836 
-1.38538 -0.37010 1.95377 
-1.19313 -0.46747 2.00703 
-1.40082 -0.35991 1.97366 
-1.49748 -0.22665 1.96962 
-1.50966 -0.02871 1.98114 
-1.65426 0.05255 1.95208 
-1.53396 0.36256 1.97801 
-1.65704 0.48093 1.93435 
-1.58092 0.67883 1.92418 
-1.24295 -1.06168 1.77846 
-1.36264 -0.87211 1.81743 
-1.27558 -0.74078 1.89627 
-1.35433 -0.55423 1.92178 
-1.23192 -0.49066 1.98580 
-1.27446 -0.35233 2.02391 
-1.27008 -0.20586 2.03306 
-1.37970 -0.13284 2.01617 
-1.35041 0.06090 2.04158 
-1.48344 0.18418 1.99974 
-1.38079 0.38163 2.03284 
-1.48012 0.53649 1.98888 
-1.40102 0.71217 1.98577 
-1.49362 0.86829 1.92573 
-1.38636 1.04483 1.91817 
-0.98217 -1.37038 1.68464 
-1.11562 -1.22919 1.73859 
-1.04577 -1.08690 1.82483 
-1.16804 -0.91999 1.86274 
-1.07907 -0.78487 1.93712 
-1.16853 -0.63213 1.96953 
-1.06878 -0.49738 2.03983 
-1.12911 -0.34035 2.05497 
-1.09875 -0.18509 2.08968 
-1.21928 -0.05462 2.06668 
-1.17039 0.10861 2.10499 
-1.29070 0.24143 2.06927 
-1.20324 0.41816 2.08761 
-1.30089 0.56328 2.03899 
-1.21704 0.74047 2.04194 
-1.31618 0.88191 1.98997 
-1.22335 1.03455 1.98504 
-0.78245 -1.38669 1.70816 
-0.91584 -1.23894 1.77730 
-0.84576 -1.09864 1.86229 
-0.97379 -0.94462 1.89757 
-0.89502 -0.80322 1.98451 
-0.99019 -0.65170 2.02019 
-0.90658 -0.49638 2.08658 
-0.98874 -0.33923 2.09961 
-0.93710 -0.17350 2.14117 
-1.04938 -0.02303 2.12503 
-0.98696 0.14396 2.16695 
-1.10581 0.27253 2.12911 
-1.01978 0.44884 2.12889 
-1.11837 0.59395 2.08794 
-1.03534 0.77132 2.09475 
-1.13146 0.91800 2.04911 
-1.05890 1.11283 2.02909 
-1.23348 1.19090 1.93740 
-1.08744 1.30829 1.96777 
-0.64070 -1.50936 1.65122 
-0.56841 -1.36872 1.73055 
-0.71255 -1.23991 1.79637 
-0.65418 -1.09430 1.88810 
-0.78596 -0.95251 1.94843 
-0.71392 -0.80168 2.02759 
-0.81716 -0.64996 2.05896 
-0.74573 -0.48520 2.13095 
-0.83470 -0.32669 2.14057 
-0.77151 -0.15599 2.19350 
-0.88652 -0.01071 2.18349 
-0.81137 0.15975 2.20632 
-0.91825 0.30806 2.17437 
-0.83918 0.47511 2.18063 
-0.93468 0.62428 2.13028 
-0.84961 0.79840 2.13743 
-0.95420 0.95041 2.09664 
-0.85557 1.12041 2.08162 
-0.93321 1.25282 2.01758 
-0.91472 1.42180 1.97654 
-0.24481 -1.50790 1.61904 
-0.44423 -1.49401 1.64595 
-0.34417 -1.35797 1.74161 
-0.50881 -1.22888 1.81784 
-0.46655 -1.07852 1.91366 
-0.59936 -0.94460 1.97162 
-0.54468 -0.78143 2.05094 
-0.65045 -0.63461 2.09814 
-0.58161 -0.46371 2.16714 
-0.67572 -0.31245 2.18235 
-0.60500 -0.14193 2.22019 
-0.70855 0.01171 2.21956 
-0.63176 0.17702 2.25138 
-0.73641 0.32533 2.22445 
-0.65484 0.49326 2.22110 
-0.75198 0.64316 2.17305 
-0.66268 0.81182 2.16575 
-0.76319 0.96820 2.12745 
-0.66725 1.14035 2.10372 
-0.75799 1.31133 2.04633 
-0.60866 1.43689 2.02738 
-0.74803 1.51319 1.97727 
-0.01135 -1.50543 1.61983 
-0.14593 -1.41195 1.70143 
-0.14757 -1.28657 1.79294 
-0.31693 -1.20077 1.85002 
-0.28892 -1.04763 1.94222 
-0.42482 -0.91805 1.99950 
-0.38154 -0.75415 2.07691 
-0.48530 -0.61246 2.12254 
-0.41286 -0.44899 2.19452 
-0.50747 -0.29641 2.21910 
-0.43675 -0.12226 2.25442 
-0.53599 0.02747 2.25985 
-0.44979 0.19758 2.28694 
-0.55557 0.34751 2.27159 
-0.46717 0.51015 2.25269 
-0.56549 0.65825 2.20775 
-0.47615 0.81976 2.19766 
-0.57463 0.97437 2.14245 
-0.47659 1.13280 2.13094 
-0.55390 1.29720 2.08398 
-0.42390 1.46742 2.03232 
-0.55516 1.59908 1.96838 
0.20651 -1.43138 1.65103 
0.03889 -1.36535 1.72520 
0.04893 -1.22314 1.80663 
-0.12779 -1.15081 1.88709 
-0.11801 -1.00633 1.96450 
-0.25783 -0.88510 2.01902 
-0.21877 -0.72169 2.08871 
-0.31897 -0.58745 2.14169 
-0.25167 -0.41546 2.19855 
-0.34411 -0.27293 2.23817 
-0.26213 -0.10438 2.26423 
-0.35877 0.04380 2.28001 
-0.26909 0.20986 2.28314 
-0.36956 0.36349 2.28549 
-0.27580 0.51943 2.27843 
-0.37607 0.66930 2.24194 
-0.28600 0.82727 2.22367 
-0.38585 0.97646 2.17494 
-0.28383 1.12623 2.14592 
-0.37737 1.27981 2.09841 
-0.26731 1.39900 2.05747 
-0.35463 1.65619 1.96173 
0.40940 -1.31677 1.67150 
0.23991 -1.27067 1.73495 
0.24140 -1.13476 1.80836 
0.05217 -1.09289 1.89011 
0.03489 -0.96014 1.97351 
-0.09730 -0.85046 2.04104 
-0.06845 -0.68283 2.10208 
-0.15969 -0.54965 2.15358 
-0.08392 -0.38397 2.19633 
-0.17151 -0.24837 2.23568 
-0.08552 -0.08437 2.26692 
-0.17653 0.06095 2.27688 
-0.07994 0.22038 2.28293 
-0.17844 0.36623 2.28929 
-0.08393 0.52549 2.27993 
-0.18308 0.67538 2.25865 
-0.09438 0.82742 2.22742 
-0.19137 0.97664 2.18626 
-0.09189 1.12245 2.14437 
-0.18905 1.26481 2.10307 
-0.09802 1.41515 2.04290 
-0.22507 1.54444 2.01000 
-0.13943 1.69532 1.92491 
0.58422 -1.19661 1.66343 
0.65412 -1.00616 1.72797 
0.45022 -1.12942 1.75134 
0.40819 -1.00901 1.82778 
0.21389 -1.02496 1.89255 
0.16449 -0.92601 1.95991 
0.04127 -0.80414 2.04037 
0.08081 -0.63766 2.10024 
-0.00443 -0.51654 2.15169 
0.08505 -0.35646 2.18367 
0.00120 -0.22372 2.22542 
0.09495 -0.07444 2.24553 
0.00628 0.07162 2.27220 
0.10572 0.22481 2.26005 
0.01314 0.37568 2.27478 
0.10722 0.52836 2.25066 
0.01046 0.68174 2.25208 
0.10366 0.82602 2.20544 
0.00112 0.97078 2.17445 
0.09058 1.11670 2.11198 
-0.00743 1.26777 2.08544 
0.07415 1.41270 2.01724 
-0.02148 1.56133 1.97249 
0.08615 1.69662 1.90073 
0.69756 -0.76063 1.82915 
0.57308 -0.91221 1.81115 
0.54217 -0.81074 1.88190 
0.36677 -0.93653 1.89568 
0.26418 -0.87829 1.94864 
0.16173 -0.75882 2.04147 
0.22450 -0.57890 2.09769 
0.15349 -0.47968 2.13919 
0.25539 -0.34382 2.15190 
0.17791 -0.21025 2.20452 
0.27793 -0.06825 2.20530 
0.19285 0.07557 2.24056 
0.29333 0.22012 2.23288 
0.20442 0.37610 2.24728 
0.29875 0.52306 2.21517 
0.20664 0.67907 2.22398 
0.29737 0.82806 2.16915 
0.19160 0.97227 2.13666 
0.27803 1.12428 2.07371 
0.17099 1.26039 2.05469 
0.24049 1.39720 1.99948 
0.18293 1.54345 1.95219 
0.59356 -0.52321 1.97282 
0.59500 -0.67734 1.91304 
0.46920 -0.63779 1.99937 
0.46241 -0.75993 1.93035 
0.35600 -0.77961 2.01516 
0.26689 -0.65813 2.05242 
0.40516 -0.59827 2.05125 
0.33309 -0.46951 2.10407 
0.42970 -0.34772 2.10336 
0.35599 -0.20941 2.15764 
0.46198 -0.07849 2.16536 
0.37994 0.06994 2.20592 
0.48059 0.21365 2.18414 
0.39114 0.36845 2.20827 
0.48914 0.51718 2.16955 
0.39282 0.67345 2.17260 
0.48421 0.82919 2.12362 
0.38216 0.98222 2.11075 
0.46546 1.13429 2.04321 
0.35638 1.28135 2.01693 
0.38835 1.46766 1.94402 
0.30876 1.65559 1.89758 
0.33440 -0.47438 2.10937 
0.44936 -0.53970 2.03206 
0.24355 -0.61319 2.11727 
0.28718 -0.67320 2.06132 
0.31809 -0.89157 1.99928 
0.48104 -0.74036 1.97044 
0.55981 -0.65627 1.97991 
0.49725 -0.49614 2.04730 
0.59468 -0.38293 2.04914 
0.53395 -0.22699 2.10830 
0.64128 -0.10190 2.10594 
0.56357 0.05652 2.15098 
0.65951 0.19901 2.11728 
0.57762 0.36077 2.15537 
0.67557 0.50947 2.11303 
0.57703 0.67032 2.12569 
0.67033 0.82283 2.07115 
0.57211 0.98412 2.07214 
0.64993 1.14759 1.99803 
0.52975 1.29968 1.97912 
0.57685 1.44648 1.92394 
0.51081 1.60642 1.88205 
0.10694 -0.64981 2.16294 
0.12788 -0.85242 2.10487 
0.21083 -0.86169 2.06934 
0.35757 -0.98946 1.96861 
0.51028 -0.85532 1.94631 
0.63583 -0.73855 1.92284 
0.63731 -0.54788 1.98454 
0.74847 -0.43963 1.98913 
0.69979 -0.26893 2.05333 
0.80586 -0.13796 2.03734 
0.73968 0.03706 2.08771 
0.83609 0.17231 2.04787 
0.75872 0.34265 2.09105 
0.85048 0.48807 2.04494 
0.76069 0.65847 2.05872 
0.84899 0.81413 2.00846 
0.75499 0.98374 2.01540 
0.83760 1.13741 1.95819 
0.72647 1.32171 1.93028 
0.88192 1.43574 1.85079 
0.71029 1.52328 1.86359 
0.00799 -0.88317 2.15205 
0.12889 -1.07789 2.03662 
0.24727 -1.02385 1.99415 
0.46942 -1.05016 1.90571 
0.57103 -0.92260 1.89915 
0.73170 -0.81501 1.86608 
0.75706 -0.62158 1.92032 
0.88299 -0.49910 1.91179 
0.85651 -0.31475 1.98351 
0.96476 -0.18258 1.95367 
0.90571 -0.00429 2.01239 
1.00848 0.13730 1.97598 
0.93601 0.31493 2.02016 
1.02837 0.46343 1.98349 
0.93941 0.64031 2.00226 
1.02665 0.79125 1.95046 
0.93867 0.97141 1.95584 
1.03687 1.13289 1.88858 
0.90379 1.27193 1.89897 
1.05214 1.32612 1.82422 
0.25472 -1.26413 1.94757 
0.35259 -1.14902 1.92598 
0.58631 -1.14559 1.84396 
0.67387 -0.99061 1.84615 
0.85077 -0.88613 1.81145 
0.87804 -0.69164 1.85455 
1.01435 -0.56447 1.83707 
1.00213 -0.36841 1.89435 
1.11456 -0.23392 1.86114 
1.06384 -0.04375 1.92104 
1.17485 0.10264 1.90044 
1.10862 0.28512 1.94581 
1.19864 0.43287 1.90429 
1.11507 0.61345 1.93706 
1.20538 0.76391 1.88342 
1.11339 0.93959 1.89936 
1.20838 1.06271 1.84765 
1.20973 1.22184 1.80707 
0.47496 -1.28332 1.84663 
0.71409 -1.24366 1.76074 
0.79543 -1.06908 1.77728 
0.98306 -0.95986 1.74172 
1.00632 -0.76284 1.78870 
1.14955 -0.62285 1.76014 
1.15067 -0.43093 1.80809 
1.26654 -0.28764 1.78221 
1.21857 -0.08603 1.83789 
1.33853 0.06634 1.81974 
1.28264 0.24896 1.86864 
1.36905 0.40777 1.84343 
1.28814 0.58782 1.87076 
1.38833 0.74082 1.82958 
1.29599 0.90908 1.83804 
1.36550 1.07809 1.77560 
0.93950 -1.14872 1.70313 
1.14003 -1.02078 1.67150 
1.13888 -0.82759 1.71271 
1.27135 -0.69636 1.69855 
1.31561 -0.49771 1.72209 
1.42543 -0.31942 1.71876 
1.36800 -0.12499 1.76357 
1.49597 0.01810 1.74291 
1.47005 0.22070 1.79051 
1.52207 0.39876 1.78295 
1.46290 0.56811 1.80669 
1.56427 0.71979 1.75794 
1.46964 0.90083 1.76413 
1.31097 -0.86682 1.65420 
1.42575 -0.66692 1.65138 
1.50762 -0.47949 1.66403 
1.61007 -0.29464 1.65825 
1.51388 -0.16346 1.70459 
1.65179 -0.07560 1.66607 
1.63552 0.12485 1.70668 
1.65280 0.31093 1.73245 
1.64076 0.52480 1.74881 
0.91878 0.39477 2.00000 
0.00000 0.00000 -1.50000 
CELLS 1023 3068
2 0 5
2 0 6
2 0 7
2 0 20
2 1 2
2 1 7
2 1 8
2 1 9
2 2 9
2 2 10
2 2 11
2 3 11
2 3 12
2 3 13
2 3 24
2 4 5
2 4 16
2 4 17
2 4 18
2 5 6
2 5 18
2 6 18
2 6 19
2 6 20
2 7 8
2 7 20
2 8 9
2 8 20
2 8 21
2 8 22
2 9 10
2 9 22
2 10 11
2 10 22
2 10 23
2 10 24
2 11 24
2 12 13
2 12 24
2 12 25
2 12 26
2 13 14
2 13 26
2 14 26
2 14 27
2 14 28
2 15 16
2 15 31
2 15 32
2 15 33
2 16 17
2 16 33
2 17 18
2 17 33
2 17 34
2 17 35
2 18 19
2 18 35
2 19 20
2 19 35
2 19 36
2 19 37
2 20 21
2 20 37
2 21 22
2 21 37
2 21 38
2 21 39
2 22 23
2 22 39
2 23 24
2 23 39
2 23 40
2 23 41
2 24 25
2 24 41
2 25 26
2 25 41
2 25 42
2 25 43
2 26 27
2 26 43
2 27 28
2 27 43
2 27 44
2 27 45
2 28 29
2 28 45
2 29 45
2 29 46
2 29 64
2 30 31
2 30 47
2 30 48
2 31 32
2 31 48
2 32 33
2 32 48
2 32 49
2 32 50
2 33 34
2 33 50
2 34 35
2 34 50
2 34 51
2 34 52
2 35 36
2 35 52
2 36 37
2 36 52
2 36 53
2 36 54
2 37 38
2 37 54
2 38 39
2 38 54
2 38 55
2 38 56
2 39 40
2 39 56
2 40 41
2 40 56
2 40 57
2 40 58
2 41 42
2 41 58
2 42 43
2 42 58
2 42 59
2 42 60
2 43 44
2 43 60
2 44 45
2 44 60
2 44 61
2 44 62
2 45 46
2 45 62
2 46 62
2 46 63
2 46 64
2 47 48
2 47 66
2 47 67
2 47 68
2 48 49
2 48 68
2 49 50
2 49 68
2 49 69
2 49 70
2 50 51
2 50 70
2 51 52
2 51 70
2 51 71
2 51 72
2 52 53
2 52 72
2 53 54
2 53 72
2 53 73
2 53 74
2 54 55
2 54 74
2 55 56
2 55 74
2 55 75
2 55 76
2 56 57
2 56 76
2 57 58
2 57 76
2 57 77
2 57 78
2 58 59
2 58 78
2 59 60
2 59 78
2 59 79
2 59 80
2 60 61
2 60 80
2 61 62
2 61 80
2 61 81
2 61 82
2 62 63
2 62 82
2 63 64
2 63 65
2 63 82
2 63 83
2 63 84
2 64 65
2 65 84
2 65 85
2 66 67
2 66 87
2 67 68
2 67 87
2 67 88
2 67 89
2 68 69
2 68 89
2 69 70
2 69 89
2 69 90
2 69 91
2 70 71
2 70 91
2 71 72
2 71 91
2 71 92
2 71 93
2 72 73
2 72 93
2 73 74
2 73 93
2 73 94
2 73 95
2 74 75
2 74 95
2 75 76
2 75 95
2 75 96
2 75 97
2 76 77
2 76 97
2 77 78
2 77 97
2 77 98
2 77 99
2 78 79
2 78 99
2 79 80
2 79 99
2 79 100
2 79 101
2 80 81
2 80 101
2 81 82
2 81 101
2 81 102
2 81 103
2 82 83
2 82 103
2 83 84
2 83 103
2 83 104
2 83 105
2 84 85
2 84 105
2 85 105
2 85 107
2 86 87
2 86 88
2 86 108
2 86 109
2 87 88
2 88 89
2 88 109
2 88 110
2 88 111
2 89 90
2 89 111
2 90 91
2 90 111
2 90 112
2 90 113
2 91 92
2 91 113
2 92 93
2 92 113
2 92 114
2 92 115
2 93 94
2 93 115
2 94 95
2 94 115
2 94 116
2 94 117
2 95 96
2 95 117
2 96 97
2 96 117
2 96 118
2 96 119
2 97 98
2 97 119
2 98 99
2 98 119
2 98 120
2 98 121
2 99 100
2 99 121
2 100 101
2 100 121
2 100 122
2 100 123
2 101 102
2 101 123
2 102 103
2 102 123
2 102 124
2 102 125
2 103 104
2 103 125
2 104 105
2 104 125
2 104 126
2 104 127
2 105 106
2 105 107
2 105 127
2 106 107
2 106 127
2 106 128
2 106 129
2 107 129
2 108 109
2 108 130
2 108 131
2 109 110
2 109 131
2 110 111
2 110 131
2 110 132
2 110 133
2 111 112
2 111 133
2 112 113
2 112 133
2 112 134
2 112 135
2 113 114
2 113 135
2 114 115
2 114 135
2 114 136
2 114 137
2 115 116
2 115 137
2 116 117
2 116 137
2 116 138
2 116 139
2 117 118
2 117 139
2 118 119
2 118 139
2 118 140
2 118 141
2 119 120
2 119 141
2 120 121
2 120 141
2 120 142
2 120 143
2 121 122
2 121 143
2 122 123
2 122 143
2 122 144
2 122 145
2 123 124
2 123 145
2 124 125
2 124 145
2 124 146
2 124 147
2 125 126
2 125 147
2 126 127
2 126 147
2 126 148
2 126 149
2 127 128
2 127 149
2 128 129
2 128 149
2 128 150
2 128 151
2 128 173
2 129 151
2 130 131
2 130 152
2 130 153
2 131 132
2 131 153
2 132 133
2 132 153
2 132 154
2 132 155
2 133 134
2 133 155
2 134 135
2 134 155
2 134 156
2 134 157
2 135 136
2 135 157
2 136 137
2 136 157
2 136 158
2 136 159
2 137 138
2 137 159
2 138 139
2 138 159
2 138 160
2 138 161
2 139 140
2 139 161
2 140 141
2 140 161
2 140 162
2 140 163
2 141 142
2 141 163
2 142 143
2 142 163
2 142 164
2 142 165
2 143 144
2 143 165
2 144 145
2 144 165
2 144 166
2 144 167
2 145 146
2 145 167
2 146 147
2 146 167
2 146 168
2 146 169
2 147 148
2 147 169
2 148 149
2 148 169
2 148 170
2 148 171
2 149 150
2 149 171
2 150 171
2 150 172
2 150 173
2 151 173
2 151 174
2 152 153
2 152 175
2 152 177
2 153 154
2 153 177
2 154 155
2 154 177
2 154 178
2 154 179
2 155 156
2 155 179
2 156 157
2 156 179
2 156 180
2 156 181
2 157 158
2 157 181
2 158 159
2 158 181
2 158 182
2 158 183
2 159 160
2 159 183
2 160 161
2 160 183
2 160 184
2 160 185
2 161 162
2 161 185
2 162 163
2 162 185
2 162 186
2 162 187
2 163 164
2 163 187
2 164 165
2 164 187
2 164 188
2 164 189
2 165 166
2 165 189
2 166 167
2 166 189
2 166 190
2 166 191
2 167 168
2 167 191
2 168 169
2 168 191
2 168 192
2 168 193
2 169 170
2 169 193
2 170 171
2 170 193
2 170 194
2 170 195
2 171 172
2 171 195
2 172 173
2 172 195
2 172 196
2 172 197
2 173 174
2 173 197
2 174 197
2 174 198
2 175 176
2 175 177
2 176 177
2 176 199
2 176 200
2 177 178
2 177 200
2 178 179
2 178 200
2 178 201
2 178 202
2 179 180
2 179 202
2 180 181
2 180 202
2 180 203
2 180 204
2 181 182
2 181 204
2 182 183
2 182 204
2 182 205
2 182 206
2 183 184
2 183 206
2 184 185
2 184 206
2 184 207
2 184 208
2 185 186
2 185 208
2 186 187
2 186 208
2 186 209
2 186 210
2 187 188
2 187 210
2 188 189
2 188 210
2 188 211
2 188 212
2 189 190
2 189 212
2 190 191
2 190 212
2 190 213
2 190 214
2 191 192
2 191 214
2 192 193
2 192 214
2 192 215
2 192 216
2 193 194
2 193 216
2 194 195
2 194 216
2 194 217
2 194 218
2 195 196
2 195 218
2 196 197
2 196 218
2 196 219
2 196 220
2 197 198
2 197 220
2 198 220
2 198 242
2 199 200
2 199 221
2 199 222
2 200 201
2 200 222
2 201 202
2 201 222
2 201 223
2 201 224
2 202 203
2 202 224
2 203 204
2 203 224
2 203 225
2 203 226
2 204 205
2 204 226
2 205 206
2 205 226
2 205 227
2 205 228
2 206 207
2 206 228
2 207 208
2 207 228
2 207 229
2 207 230
2 208 209
2 208 230
2 209 210
2 209 230
2 209 231
2 209 232
2 210 211
2 210 232
2 211 212
2 211 232
2 211 233
2 211 234
2 212 213
2 212 234
2 213 214
2 213 234
2 213 235
2 213 236
2 214 215
2 214 236
2 215 216
2 215 236
2 215 237
2 215 238
2 216 217
2 216 238
2 217 218
2 217 238
2 217 239
2 217 240
2 218 219
2 218 240
2 219 220
2 219 240
2 219 241
2 220 241
2 220 242
2 221 222
2 221 243
2 221 244
2 222 223
2 222 244
2 223 224
2 223 244
2 223 245
2 223 246
2 224 225
2 224 246
2 225 226
2 225 246
2 225 247
2 225 248
2 226 227
2 226 248
2 227 228
2 227 248
2 227 249
2 227 250
2 228 229
2 228 250
2 229 230
2 229 250
2 229 251
2 229 252
2 230 231
2 230 252
2 231 232
2 231 252
2 231 253
2 231 254
2 232 233
2 232 254
2 233 234
2 233 254
2 233 255
2 233 256
2 234 235
2 234 256
2 235 236
2 235 256
2 235 257
2 235 258
2 236 237
2 236 258
2 237 238
2 237 258
2 237 259
2 237 260
2 238 239
2 238 260
2 239 240
2 239 260
2 239 261
2 239 262
2 240 241
2 240 262
2 241 242
2 241 262
2 241 263
2 241 264
2 242 264
2 243 244
2 243 245
2 243 265
2 244 245
2 245 246
2 245 265
2 245 266
2 245 267
2 246 247
2 246 267
2 247 248
2 247 267
2 247 268
2 247 269
2 248 249
2 248 269
2 249 250
2 249 269
2 249 270
2 249 271
2 250 251
2 250 271
2 251 252
2 251 271
2 251 272
2 251 273
2 252 253
2 252 273
2 253 254
2 253 273
2 253 274
2 253 275
2 254 255
2 254 275
2 255 256
2 255 275
2 255 276
2 255 277
2 256 257
2 256 277
2 257 258
2 257 277
2 257 278
2 257 279
2 258 259
2 258 279
2 259 260
2 259 279
2 259 280
2 259 281
2 260 261
2 260 281
2 261 262
2 261 281
2 261 282
2 261 283
2 262 263
2 262 283
2 263 264
2 263 283
2 263 285
2 264 285
2 265 266
2 265 286
2 266 267
2 266 286
2 266 287
2 266 288
2 267 268
2 267 288
2 268 269
2 268 288
2 268 289
2 268 290
2 269 270
2 269 290
2 270 271
2 270 290
2 270 291
2 270 292
2 271 272
2 271 292
2 272 273
2 272 292
2 272 293
2 272 294
2 273 274
2 273 294
2 274 275
2 274 294
2 274 295
2 274 296
2 275 276
2 275 296
2 276 277
2 276 296
2 276 297
2 276 298
2 277 278
2 277 298
2 278 279
2 278 298
2 278 299
2 278 300
2 279 280
2 279 300
2 280 281
2 280 300
2 280 301
2 280 302
2 281 282
2 281 302
2 282 283
2 282 302
2 282 303
2 282 304
2 283 284
2 283 285
2 283 304
2 284 285
2 284 304
2 284 305
2 286 287
2 287 288
2 287 306
2 287 307
2 288 289
2 288 307
2 289 290
2 289 307
2 289 308
2 289 309
2 290 291
2 290 309
2 291 292
2 291 309
2 291 310
2 291 311
2 292 293
2 292 311
2 293 294
2 293 311
2 293 312
2 293 313
2 294 295
2 294 313
2 295 296
2 295 313
2 295 314
2 295 315
2 296 297
2 296 315
2 297 298
2 297 315
2 297 316
2 297 317
2 298 299
2 298 317
2 299 300
2 299 317
2 299 318
2 299 319
2 300 301
2 300 319
2 301 302
2 301 319
2 301 320
2 301 321
2 302 303
2 302 321
2 303 304
2 303 305
2 303 321
2 303 322
2 303 323
2 304 305
2 305 323
2 306 307
2 306 324
2 307 308
2 307 324
2 308 309
2 308 324
2 308 325
2 308 326
2 309 310
2 309 326
2 310 311
2 310 326
2 310 327
2 310 328
2 311 312
2 311 328
2 312 313
2 312 328
2 312 329
2 312 330
2 313 314
2 313 330
2 314 315
2 314 330
2 314 331
2 314 332
2 315 316
2 315 332
2 316 317
2 316 332
2 316 333
2 316 334
2 317 318
2 317 334
2 318 319
2 318 334
2 318 335
2 318 336
2 319 320
2 319 336
2 320 321
2 320 336
2 320 337
2 320 338
2 321 322
2 321 338
2 322 323
2 322 338
2 322 339
2 323 339
2 324 325
2 325 326
2 325 340
2 326 327
2 326 340
2 327 328
2 327 340
2 327 341
2 327 342
2 328 329
2 328 342
2 329 330
2 329 342
2 329 343
2 329 344
2 330 331
2 330 344
2 331 332
2 331 344
2 331 345
2 331 346
2 332 333
2 332 346
2 333 334
2 333 346
2 333 347
2 333 348
2 334 335
2 334 348
2 335 336
2 335 348
2 335 349
2 335 350
2 336 337
2 336 350
2 337 338
2 337 350
2 337 351
2 337 352
2 338 339
2 338 352
2 339 352
2 340 341
2 341 342
2 341 353
2 342 343
2 342 353
2 343 344
2 343 353
2 343 354
2 344 345
2 344 354
2 344 355
2 345 346
2 345 355
2 345 356
2 345 357
2 346 347
2 346 357
2 347 348
2 347 357
2 347 358
2 347 359
2 348 349
2 348 359
2 348 360
2 349 350
2 349 360
2 349 361
2 350 351
2 350 361
2 351 352
2 351 361
2 353 354
2 354 355
2 355 356
2 356 357
2 356 358
2 357 358
2 358 359
2 359 360
2 360 361
1 363
CELL_TYPES 1023
3
3
3
3
3
3
3
3
3
3
3
3
3
3
3
3
3
3
3
3
3
3
3
3
3
3
3
3
3
3
3
3
3
3
3
3
3
3
3
3
3
3
3
3
3
3
3
3
3
3
3
3
3
3
3
3
3
3
3
3
3
3
3
3
3
3
3
3
3
3
3
3
3
3
3
3
3
3
3
3
3
3
3
3
3
3
3
3
3
3
3
3
3
3
3
3
3
3
3
3
3
3
3
3
3
3
3
3
3
3
3
3
3
3
3
3
3
3
3
3
3
3
3
3
3
3
3
3
3
3
3
3
3
3
3
3
3
3
3
3
3
3
3
3
3
3
3
3
3
3
3
3
3
3
3
3
3
3
3
3
3
3
3
3
3
3
3
3
3
3
3
3
3
3
3
3
3
3
3
3
3
3
3
3
3
3
3
3
3
3
3
3
3
3
3
3
3
3
3
3
3
3
3
3
3
3
3
3
3
3
3
3
3
3
3
3
3
3
3
3
3
3
3
3
3
3
3
3
3
3
3
3
3
3
3
3
3
3
3
3
3
3
3
3
3
3
3
3
3
3
3
3
3
3
3
3
3
3
3
3
3
3
3
3
3
3
3
3
3
3
3
3
3
3
3
3
3
3
3
3
3
3
3
3
3
3
3
3
3
3
3
3
3
3
3
3
3
3
3
3
3
3
3
3
3
3
3
3
3
3
3
3
3
3
3
3
3
3
3
3
3
3
3
3
3
3
3
3
3
3
3
3
3
3
3
3
3
3
3
3
3
3
3
3
3
3
3
3
3
3
3
3
3
3
3
3
3
3
3
3
3
3
3
3
3
3
3
3
3
3
3
3
3
3
3
3
3
3
3
3
3
3
3
3
3
3
3
3
3
3
3
3
3
3
3
3
3
3
3
3
3
3
3
3
3
3
3
3
3
3
3
3
3
3
3
3
3
3
3
3
3
3
3
3
3
3
3
3
3
3
3
3
3
3
3
3
3
3
3
3
3
3
3
3
3
3
3
3
3
3
3
3
3
3
3
3
3
3
3
3
3
3
3
3
3
3
3
3
3
3
3
3
3
3
3
3
3
3
3
3
3
3
3
3
3
3
3
3
3
3
3
3
3
3
3
3
3
3
3
3
3
3
3
3
3
3
3
3
3
3
3
3
3
3
3
3
3
3
3
3
3
3
3
3
3
3
3
3
3
3
3
3
3
3
3
3
3
3
3
3
3
3
3
3
3
3
3
3
3
3
3
3
3
3
3
3
3
3
3
3
3
3
3
3
3
3
3
3
3
3
3
3
3
3
3
3
3
3
3
3
3
3
3
3
3
3
3
3
3
3
3
3
3
3
3
3
3
3
3
3
3
3
3
3
3
3
3
3
3
3
3
3
3
3
3
3
3
3
3
3
3
3
3
3
3
3
3
3
3
3
3
3
3
3
3
3
3
3
3
3
3
3
3
3
3
3
3
3
3
3
3
3
3
3
3
3
3
3
3
3
3
3
3
3
3
3
3
3
3
3
3
3
3
3
3
3
3
3
3
3
3
3
3
3
3
3
3
3
3
3
3
3
3
3
3
3
3
3
3
3
3
3
3
3
3
3
3
3
3
3
3
3
3
3
3
3
3
3
3
3
3
3
3
3
3
3
3
3
3
3
3
3
3
3
3
3
3
3
3
3
3
3
3
3
3
3
3
3
3
3
3
3
3
3
3
3
3
3
3
3
3
3
3
3
3
3
3
3
3
3
3
3
3
3
3
3
3
3
3
3
3
3
3
3
3
3
3
3
3
3
3
3
3
3
3
3
3
3
3
3
3
3
3
3
3
3
3
3
3
3
3
3
3
3
3
3
3
3
3
3
3
3
3
3
3
3
3
3
3
3
3
3
3
3
3
3
3
3
3
3
3
3
3
3
3
3
3
3
3
3
3
3
3
3
3
3
3
3
3
3
3
3
3
3
3
3
3
3
3
3
3
3
3
3
3
3
3
3
3
3
3
3
3
3
3
3
3
3
3
3
3
3
3
3
3
3
3
3
3
3
3
3
3
3
3
3
3
3
3
3
3
3
3
3
3
3
3
3
3
3
3
3
3
3
3
3
3
3
3
3
3
3
3
3
3
3
3
3
3
3
3
3
3
3
3
3
3
3
3
3
3
3
3
3
3
3
3
3
3
3
3
3
3
3
3
3
3
3
3
3
3
3
3
3
3
3
3
3
3
3
3
3
3
3
3
3
3
3
3
3
3
3
3
3
3
3
3
3
3
3
3
3
3
3
3
3
3
3
3
3
3
3
3
3
3
3
3
3
3
3
3
3
1
CELL_DATA 1023
SCALARS Strain double 
LOOKUP_TABLE default 
1.11939
0.50148
0.74792
-0.04713
0.81651
1.09870
-0.21307
0.29916
-0.01531
0.37028
0.59299
0.38635
0.14151
0.47877
0.37183
0.85606
0.64404
0.40248
0.04767
-0.25769
0.47576
0.26301
0.31839
-0.11713
0.57510
-0.05346
0.09786
-0.09203
0.40400
0.54650
0.32427
0.05067
0.12264
0.13451
0.28318
0.43536
0.47234
0.17504
0.24449
0.09203
0.21597
0.41518
0.28865
0.24020
0.28694
0.39071
0.51703
0.42771
0.36083
0.20725
0.17460
0.36977
0.36058
0.41116
0.36998
0.12807
0.01378
0.38033
-0.00232
0.03921
0.14660
0.29865
-0.02118
-0.00591
-0.11474
0.30705
0.21092
0.08699
0.31727
0.23659
0.24088
0.17701
0.31153
0.28100
0.49996
0.41834
0.26101
0.13727
0.26243
0.32359
0.28458
0.25345
0.27456
0.24772
0.29625
0.26541
0.37809
0.26135
0.27586
0.17666
0.41544
0.34416
0.34506
0.15977
0.20302
0.35823
0.40230
0.37045
0.35887
0.16845
0.18706
0.32587
0.19965
0.30245
0.27293
0.20249
0.21203
0.24285
0.12601
0.16196
0.12537
0.24700
0.07977
-0.01798
0.19400
0.26423
0.13364
0.15374
0.16431
0.21600
0.21822
0.19952
0.31207
0.18553
0.32025
0.31202
0.21032
0.20041
0.27023
0.30135
0.30701
0.27626
0.20247
0.21695
0.27816
0.31471
0.19146
0.31520
0.07769
0.24917
0.09173
0.40480
0.30612
0.43976
0.23314
0.18916
0.36118
0.35581
0.36698
0.28904
0.19907
0.22482
0.29834
0.21634
0.25581
0.24105
0.24888
0.25651
0.18221
0.18539
0.19904
0.11484
0.28021
0.18997
0.06592
0.25624
0.22839
0.16367
0.17095
0.22088
0.15647
0.19418
0.23443
0.20433
0.18711
0.30789
0.30794
0.20099
0.19620
0.26461
0.29993
0.30643
0.27288
0.20810
0.21133
0.28324
0.31081
0.39246
0.24243
0.41384
0.37883
0.36476
0.40097
0.25661
0.26543
0.14205
0.37908
0.17943
0.31428
0.36142
0.30430
0.49843
0.16860
0.21145
0.36776
0.35171
0.40123
0.26682
0.19983
0.23300
0.25465
0.24110
0.27688
0.14696
0.28092
0.28979
0.14625
0.21355
0.20146
0.12956
0.28904
0.26374
0.09998
0.23707
0.22532
0.12809
0.20672
0.25126
0.21974
0.23721
0.20486
0.23982
0.21773
0.23283
0.26267
0.22756
0.24573
0.26397
0.26314
0.29283
0.25724
0.25983
0.24540
0.26353
0.27193
0.31406
0.29528
0.10877
0.22564
0.27111
0.44870
0.16580
0.24636
0.36038
0.26734
0.34468
0.45108
0.55647
0.07027
0.29390
0.48447
0.39571
0.43582
0.28595
0.22157
0.31053
0.31543
0.35611
0.21695
0.24471
0.26326
0.19162
0.24672
0.25923
0.11622
0.28591
0.31159
0.12271
0.19195
0.21821
0.14395
0.26818
0.25629
0.15306
0.23520
0.21796
0.15216
0.24780
0.23354
0.18602
0.22335
0.18524
0.24370
0.25222
0.24475
0.25460
0.23316
0.22286
0.27375
0.25406
0.27321
0.26859
0.26535
0.24354
0.26277
0.24219
0.32333
0.26177
0.34602
0.29319
0.28488
0.29685
0.30678
0.42381
0.38675
0.11073
0.06903
0.24887
0.20460
0.40883
0.22033
0.54805
0.21561
0.03488
0.28052
0.32170
0.42306
0.37960
0.10926
0.20620
0.32741
0.30877
0.32746
0.18155
0.21621
0.24240
0.14213
0.20966
0.26145
0.10926
0.26314
0.28498
0.12853
0.20805
0.16955
0.09789
0.29322
0.27501
0.10761
0.19813
0.18408
0.17205
0.23490
0.28411
0.19408
0.22758
0.19219
0.20766
0.22869
0.24047
0.24811
0.22242
0.19465
0.28875
0.22460
0.23232
0.28530
0.27629
0.24031
0.28041
0.21520
0.24442
0.27707
0.25096
0.24026
0.28971
0.20213
0.46882
0.18646
0.31069
0.36184
0.15146
0.42074
0.42923
0.39073
0.29880
0.55952
0.22900
0.09460
0.48275
0.38138
0.39634
0.41198
0.03156
0.09469
0.26050
0.28614
0.36607
0.06652
0.16586
0.21265
0.10465
0.17125
0.22223
0.03895
0.28746
0.28827
0.09428
0.16292
0.12529
0.13797
0.26009
0.26157
0.16239
0.18404
0.15009
0.18502
0.24401
0.25837
0.22046
0.22384
0.16964
0.26300
0.20565
0.21389
0.27450
0.22650
0.21231
0.27982
0.21678
0.21843
0.29211
0.24013
0.24520
0.27775
0.20495
0.22347
0.29874
0.23997
0.20279
0.27988
0.15515
0.11546
0.25981
0.07931
0.13788
0.05809
0.18514
0.47872
0.24507
0.41520
0.38463
0.02982
0.69247
0.40232
0.44351
0.39852
-0.05952
0.05149
0.16951
0.23042
0.37919
-0.10192
0.13232
0.20476
-0.02592
0.12968
0.16545
0.03966
0.23313
0.24752
0.05839
0.10771
0.07257
0.14441
0.22517
0.25190
0.16503
0.14505
0.12863
0.21342
0.20720
0.24334
0.22123
0.17408
0.14845
0.24740
0.20831
0.23621
0.28242
0.20646
0.19058
0.28934
0.23105
0.19181
0.29170
0.21780
0.20783
0.32837
0.20141
0.20943
0.28628
0.18154
0.20298
0.23610
0.18737
0.23848
0.21666
0.22817
0.18770
0.16060
0.19598
0.28825
0.38476
0.23161
0.51247
0.41922
0.15850
0.59601
0.79395
-0.00416
-0.00875
0.71082
0.36951
0.27956
0.63564
-0.28258
-0.13673
0.17760
0.27388
0.41658
-0.25935
0.24034
0.20852
-0.14196
0.04528
0.04737
0.03509
0.18806
0.24103
0.08430
0.08306
-0.01465
0.15829
0.16307
0.18283
0.18971
0.15291
0.09563
0.24968
0.19463
0.22020
0.26182
0.18416
0.15936
0.26421
0.20731
0.20632
0.28829
0.20904
0.20444
0.29907
0.21675
0.18657
0.32133
0.20053
0.20270
0.31397
0.22660
0.21474
0.29465
0.21346
0.18651
0.27644
0.16226
0.19841
0.20803
0.21535
0.22892
0.12005
0.21398
0.24786
0.37456
0.25561
0.50921
0.31307
0.97566
0.04339
-0.14996
0.71302
0.44189
-0.02122
0.47624
-0.29162
-0.13796
0.35868
0.21816
0.54398
0.00206
0.62274
0.32446
-0.02665
-0.14075
-0.32927
0.25022
0.02850
0.13535
0.22192
0.08755
0.03542
0.20653
0.11990
0.15793
0.22760
0.13856
0.12128
0.25739
0.14507
0.17476
0.26902
0.20078
0.16968
0.29067
0.19580
0.18371
0.27273
0.20920
0.20164
0.30580
0.21615
0.21905
0.28810
0.21179
0.21152
0.28203
0.23585
0.23900
0.28382
0.16137
0.19992
0.26769
0.22990
0.08718
0.26900
0.09425
0.09855
0.15283
0.46073
0.18117
0.10211
0.97986
0.04512
0.05075
0.55375
-0.06362
-0.29816
0.70521
0.30339
-0.08346
0.56887
0.03469
-0.10084
-0.20492
-0.07683
0.00449
0.62406
0.04486
0.20147
0.19944
-0.08286
0.03633
0.17150
0.10575
0.14959
0.18130
0.06394
0.12412
0.23675
0.16252
0.16401
0.26889
0.13050
0.17864
0.28094
0.20271
0.20509
0.27710
0.19048
0.21512
0.29324
0.22401
0.20172
0.29975
0.21294
0.24732
0.26747
0.22919
0.22674
0.28989
0.23609
0.24056
0.29223
0.23317
0.24301
0.26925
0.25774
0.35073
0.18930
0.39534
0.48245
0.27166
0.30108
0.39019
0.02111
0.10726
0.94807
0.56374
-0.38048
-0.00916
0.77345
0.70125
0.52736
0.35682
0.49440
-0.12293
-0.26720
0.35081
-0.22930
-0.19302
0.23103
0.38567
-0.16187
-0.11113
-0.00418
0.07974
0.18333
0.21467
0.16371
0.03411
0.09894
0.19784
0.21406
0.23093
0.21279
0.14162
0.16705
0.25426
0.23506
0.22076
0.27739
0.17686
0.22019
0.28689
0.26039
0.25122
0.25941
0.19993
0.24608
0.30566
0.25900
0.25314
0.26360
0.26789
0.30423
0.27658
0.29839
0.30274
0.28084
0.34602
0.09167
0.35921
0.18687
0.29948
0.10241
0.44597
0.41206
0.69140
-0.39529
-0.11691
0.57052
0.57623
0.46070
0.21619
0.36322
-0.21117
-0.05363
0.56148
0.15374
-0.31881
0.33606
0.31041
-0.09918
0.12316
0.03486
0.03061
0.25840
0.29810
0.10779
0.10149
0.12867
0.18389
0.29186
0.27746
0.23359
0.12463
0.13874
0.24631
0.28006
0.28746
0.26687
0.17554
0.18682
0.28630
0.28733
0.29796
0.26540
0.20940
0.23922
0.25535
0.29362
0.30685
0.25524
0.25695
0.22407
0.28989
0.44673
0.29574
0.40751
0.07459
0.39022
0.41954
0.24541
0.28726
0.14760
0.36136
0.71087
-0.08745
0.61170
0.73001
0.60368
0.18146
0.08806
0.02923
0.08694
0.47411
0.30786
-0.10530
0.34985
0.23966
-0.00622
0.27832
0.17254
0.02995
0.33045
0.33953
0.09769
0.18466
0.15617
0.19317
0.31187
0.32405
0.22269
0.15771
0.19139
0.24558
0.31247
0.31423
0.23984
0.20718
0.19119
0.26859
0.32586
0.32757
0.26841
0.19589
0.21242
0.26187
0.33717
0.32677
0.28559
0.19521
0.33736
0.24242
0.28503
0.36163
0.38777
0.26520
0.40534
0.16495
0.26497
0.01752
0.62017
0.65139
0.32170
0.18686
0.18084
0.20873
0.54966
0.38905
0.06828
0.34046
0.29448
0.11150
0.33188
0.24825
0.07213
0.36414
0.36231
0.10769
0.28676
0.18938
0.21866
0.37155
0.38132
0.19654
0.21530
0.23250
0.20445
0.32905
0.35678
0.24047
0.22993
0.18621
0.29178
0.34441
0.36873
0.21787
0.21367
0.22332
0.24733
0.32636
0.29984
0.28064
0.18025
0.09248
0.30016
0.09487
0.18077
0.15685
0.42854
0.71448
0.28867
0.67518
0.46667
0.20365
0.35914
0.31750
0.21624
0.37627
0.34872
0.10633
0.31881
0.40287
0.03350
0.40924
0.24056
0.31756
0.43061
0.49293
0.16013
0.28407
0.29850
0.14258
0.31428
0.34378
0.21136
0.36590
0.21700
0.36670
0.32851
0.46057
0.09860
0.26257
0.24974
0.24780
0.28079
0.26333
0.27416
0.27364
0.28747
0.25935
0.37275
0.59973
0.31694
0.53802
0.24668
0.23965
0.36589
0.20354
0.09405
0.39615
0.42620
0.34279
0.38418
0.25381
0.30583
0.19902
0.28716
0.07992
0.39815
0.24285
0.31593
0.19593
0.23774
0.39195
0.41281
0.20638
0.10260
0.17636
0.25892
0.27997
0.36246
0.39774
0.53683
0.36615
0.40948
0.12754
0.48746
0.11998
0.36774
0.25770
0.43217
0.10000
